LAMMPS (18 Aug 2010)
# 3D simple cubic lattice simulation
dimension   2
boundary    p f p

units		   lj
atom_style	bond
atom_modify sort 0 1.
bond_style  harmonic
pair_style  none
communicate single cutoff 2.0

# geometry
read_data	data.pos
  2 = max bonds/atom
  orthogonal box = (0 0 0) to (64 1 1)
  1 by 1 by 1 processor grid
  64 atoms
  64 bonds
  2 = max # of 1-2 neighbors
  2 = max # of 1-3 neighbors
  4 = max # of 1-4 neighbors
  6 = max # of special neighbors

#
neighbor 1.0 nsq
neigh_modify  delay 0 check no

#Langevin random seed
variable r equal 571101

#Langevin Temperature
variable t equal 0.005

# Langevin Damping variable
variable d equal 0.5

# Create velocities and equilibrate 
compute   MyTemp all temp/partial 1 0 0
velocity  all create $t 28711 mom yes rot yes dist gaussian temp MyTemp
velocity  all create 0.005 28711 mom yes rot yes dist gaussian temp MyTemp
velocity  all set NULL 0.0 0.0 units box
#
fix        1 all langevin $t $t $d $r
fix        1 all langevin 0.005 $t $d $r
fix        1 all langevin 0.005 0.005 $d $r
fix        1 all langevin 0.005 0.005 0.5 $r
fix        1 all langevin 0.005 0.005 0.5 571101
fix_modify 1 temp MyTemp
fix        2 all setforce NULL 0. 0.
fix        3 all nve
fix        4 all phonon 10 50000 500000 map.in phonon sysdim 1
fix_modify 4 temp MyTemp

#                    1    2    3  4
thermo_style  custom step temp pe etotal
thermo_modify temp MyTemp
thermo   100

#
run 		 1500000
Memory usage per processor = 1.46095 Mbytes
Step Temp PotEng TotEng 
       0        0.005            0  0.002421875 
     100 0.0044380593 0.00064861051 0.0027982955 
     200 0.0037632271 0.0011207122 0.0029435253 
     300 0.0038160306 0.0011031434 0.0029515332 
     400  0.003708014 0.0015415059 0.0033375752 
     500 0.0052906352 0.0016442166  0.004206868 
     600 0.0062064192 0.0015740608 0.0045802952 
     700 0.0059155559 0.0016881756  0.004553523 
     800 0.0044876613 0.0018253148 0.0039990257 
     900 0.0044610443 0.0019167457  0.004077564 
    1000 0.0035693045 0.0023241857 0.0040530676 
    1100  0.005110794 0.0019981034 0.0044736442 
    1200 0.0046982152 0.0015644064 0.0038401044 
    1300 0.0048612541  0.001486636 0.0038413059 
    1400 0.0038710573 0.0018562556  0.003731299 
    1500 0.0041594727 0.0023020899 0.0043168345 
    1600 0.0048649674 0.0028326278 0.0051890964 
    1700 0.0058848437 0.0023998416 0.0052503127 
    1800 0.0040611933  0.002034245 0.0040013855 
    1900 0.0049076506 0.0016110734 0.0039882166 
    2000 0.0051069797 0.0024440671 0.0049177604 
    2100  0.003454945  0.002530427  0.004203916 
    2200 0.0037570867 0.0019393595 0.0037591983 
    2300 0.0043309784 0.0019922992 0.0040901169 
    2400 0.0059727606 0.0021287394 0.0050217953 
    2500  0.005907992 0.0018812808 0.0047429644 
    2600 0.0047218918 0.0021612099 0.0044483763 
    2700 0.0050011687 0.0023536769  0.004776118 
    2800 0.0048711337 0.0026084427 0.0049678981 
    2900 0.0059294653 0.0022628119 0.0051348966 
    3000 0.0071684304 0.0020292245  0.005501433 
    3100 0.0047879108 0.0023689199 0.0046880642 
    3200 0.0042552858 0.0022104358 0.0042715899 
    3300 0.0054181803 0.0021459448 0.0047703758 
    3400 0.0063953015 0.0020318301 0.0051295543 
    3500 0.0062325682 0.0020094601 0.0050283603 
    3600 0.0049228418 0.0023198297 0.0047043312 
    3700 0.0053706627 0.0022201091 0.0048215239 
    3800 0.0058439631 0.0019570206 0.0047876903 
    3900 0.0054147802 0.0017734195 0.0043962037 
    4000  0.004342041 0.0016112821 0.0037144582 
    4100 0.0050466181 0.0013408482 0.0037853038 
    4200 0.0054450731  0.001569024 0.0042064813 
    4300  0.003837838 0.0019965848 0.0038555376 
    4400 0.0052139611 0.0022308421 0.0047563545 
    4500 0.0055932812 0.0020816899 0.0047909355 
    4600 0.0044382223 0.0023827223 0.0045324862 
    4700 0.0043660399 0.0024436633 0.0045584639 
    4800  0.004776242 0.0022091648 0.0045226571 
    4900  0.003736564 0.0021672066 0.0039771048 
    5000 0.0045315487 0.0023923219 0.0045872908 
    5100 0.0049538395  0.002685516  0.005085032 
    5200 0.0040264846  0.002734832 0.0046851605 
    5300 0.0052649854 0.0025753479 0.0051255752 
    5400 0.0047920211 0.0024815406 0.0048026758 
    5500  0.003564767 0.0023200324 0.0040467164 
    5600  0.005552496 0.0027656439 0.0054551342 
    5700  0.005093475  0.002660052  0.005127204 
    5800 0.0049868503 0.0025062971 0.0049218027 
    5900 0.0032421538 0.0027394149 0.0043098331 
    6000 0.0063864726 0.0026597041 0.0057531517 
    6100 0.0054820781 0.0025874765 0.0052428581 
    6200 0.0047259612 0.0024183513 0.0047074888 
    6300 0.0060839388 0.0022643979 0.0052113058 
    6400 0.0053568082 0.0024014714 0.0049961753 
    6500 0.0058345764 0.0018883754 0.0047144984 
    6600 0.0038513083 0.0018180059 0.0036834833 
    6700 0.0058546846 0.0018461202 0.0046819831 
    6800  0.005769381 0.0021080849 0.0049026289 
    6900 0.0044799458 0.0021763803  0.004346354 
    7000 0.0048618259 0.0021631767 0.0045181236 
    7100 0.0064122944 0.0021126016 0.0052185568 
    7200 0.0064483264 0.0024533334 0.0055767415 
    7300 0.0046179407 0.0026863891 0.0049232041 
    7400 0.0047408959  0.002814112 0.0051104834 
    7500 0.0042515303 0.0022613523 0.0043206873 
    7600 0.0039744497 0.0021555038 0.0040806279 
    7700 0.0043270774  0.001996511 0.0040924392 
    7800 0.0075416938 0.0019963324 0.0056493404 
    7900 0.0056496878 0.0023475121 0.0050840796 
    8000 0.0044122109 0.0025593884  0.004696553 
    8100 0.0047479172 0.0024601467  0.004759919 
    8200 0.0044297525 0.0022628653 0.0044085267 
    8300 0.0045256433 0.0018805238 0.0040726323 
    8400 0.0045372629 0.0024454575 0.0046431942 
    8500  0.002513104 0.0026195017 0.0038367864 
    8600 0.0041967642 0.0022527429 0.0042855506 
    8700 0.0051016356 0.0019580617 0.0044291665 
    8800 0.0052804304 0.0019706368 0.0045283453 
    8900 0.0024945449 0.0024900336 0.0036983287 
    9000 0.0064035849 0.0021952681 0.0052970045 
    9100 0.0062254046 0.0021127401 0.0051281705 
    9200 0.0058952331 0.0021846266 0.0050401302 
    9300 0.0040533522 0.0022811365  0.004244479 
    9400  0.004706883 0.0020584953 0.0043383918 
    9500 0.0040105828 0.0018860467 0.0038286727 
    9600 0.0044611063 0.0020371346 0.0041979829 
    9700 0.0041265037 0.0022912477 0.0042900229 
    9800 0.0072061903 0.0018026205  0.005293119 
    9900  0.005978846 0.0019746509 0.0048706544 
   10000 0.0056418701 0.0019687756 0.0047015564 
   10100 0.0054328462 0.0020352687 0.0046668035 
   10200 0.0048056613 0.0021451625 0.0044729047 
   10300 0.0067126574 0.0019488291 0.0052002726 
   10400 0.0047496144 0.0022080539 0.0045086483 
   10500 0.0047131836 0.0020378182 0.0043207665 
   10600 0.0050109013 0.0019545731 0.0043817284 
   10700 0.0044067304 0.0020146895 0.0041491995 
   10800 0.0043688306 0.0018462772 0.0039624295 
   10900 0.0036623939 0.0017367459  0.003510718 
   11000 0.0045322412 0.0016699447  0.003865249 
   11100 0.0046094034 0.0018564566 0.0040891363 
   11200 0.0064768657 0.0022379667 0.0053751985 
   11300 0.0071024954 0.0026853688   0.00612564 
   11400 0.0053628992 0.0025377678 0.0051354221 
   11500 0.0051078735 0.0026595912 0.0051337174 
   11600 0.0054471853 0.0026020845 0.0052405649 
   11700 0.0072591332 0.0023642318 0.0058803745 
   11800 0.0066690643 0.0025324799 0.0057628079 
   11900 0.0058665251 0.0026527886 0.0054943867 
   12000 0.0049861475  0.002950827 0.0053659922 
   12100 0.0046573292 0.0031537728 0.0054096666 
   12200 0.0047325865 0.0028720941 0.0051644407 
   12300 0.0051029672 0.0028317973  0.005303547 
   12400 0.0067163412 0.0023771765 0.0056304042 
   12500 0.0066789654 0.0022919987 0.0055271226 
   12600 0.0063113391 0.0021666818 0.0052237366 
   12700  0.005454114 0.0018029725  0.004444809 
   12800 0.0053716622 0.0022267684 0.0048286673 
   12900 0.0057401285 0.0026041049 0.0053844796 
   13000 0.0077267011  0.002896522 0.0066391429 
   13100 0.0057037758 0.0032921134 0.0060548798 
   13200 0.0053414789  0.003038887 0.0056261658 
   13300 0.0062995639 0.0026951639 0.0057465151 
   13400 0.0059008688 0.0022864214 0.0051446547 
   13500 0.0065855983 0.0021249857 0.0053148849 
   13600 0.0051078451  0.002628631 0.0051027435 
   13700 0.0069480979  0.003071128  0.006436613 
   13800 0.0057503488 0.0031714608  0.005956786 
   13900 0.0057063023 0.0026380724 0.0054020625 
   14000 0.0041827954 0.0024078606 0.0044339022 
   14100 0.0051262918 0.0027581157 0.0052411632 
   14200 0.0051218469 0.0022609004  0.004741795 
   14300 0.0056866221 0.0023909692 0.0051454268 
   14400  0.004809122 0.0025676146  0.004897033 
   14500 0.0069599854 0.0020589785 0.0054302214 
   14600 0.0050183808 0.0022766264 0.0047074046 
   14700 0.0056487281 0.0020431183  0.004779221 
   14800 0.0051170721 0.0022464312  0.004725013 
   14900 0.0050285704 0.0028231334 0.0052588472 
   15000 0.0054860359 0.0026484973  0.005305796 
   15100 0.0041478117 0.0023417394 0.0043508357 
   15200 0.0048115206 0.0018526609 0.0041832412 
   15300 0.0051698223 0.0021503062 0.0046544389 
   15400 0.0046107217 0.0021965266 0.0044298449 
   15500 0.0050844743 0.0020581716 0.0045209638 
   15600 0.0044374022 0.0022074638 0.0043568305 
   15700 0.0049052286 0.0022062134 0.0045821836 
   15800 0.0059814056   0.00229905 0.0051962933 
   15900 0.0057417503 0.0024646715 0.0052458318 
   16000 0.0049338934 0.0031657382 0.0055555929 
   16100 0.0046761081  0.002644405 0.0049093949 
   16200   0.00595617 0.0020959508 0.0049809706 
   16300  0.004749042 0.0018728401 0.0041731573 
   16400  0.005729641 0.0019927424 0.0047680373 
   16500 0.0055332479 0.0025689354 0.0052491023 
   16600 0.0069804179 0.0025593837 0.0059405236 
   16700 0.0031952208 0.0026935444 0.0042412295 
   16800 0.0051289066 0.0023447801 0.0048290943 
   16900 0.0057721269 0.0025028215 0.0052986954 
   17000 0.0036832922 0.0030475984 0.0048316931 
   17100 0.0056683869 0.0032787834 0.0060244083 
   17200  0.006097214 0.0027851444 0.0057384824 
   17300 0.0046546996 0.0018523367 0.0041069568 
   17400 0.0052955496 0.0015161462  0.004081178 
   17500 0.0048353835  0.001728608 0.0040707469 
   17600 0.0053122685 0.0028498292 0.0054229592 
   17700 0.0045801722 0.0033042703 0.0055227912 
   17800 0.0063982309 0.0031239581 0.0062231012 
   17900 0.0052456317 0.0026839555 0.0052248084 
   18000 0.0054839618 0.0025087355 0.0051650295 
   18100 0.0052464437 0.0025884627 0.0051297089 
   18200 0.0046387244 0.0024285951 0.0046754772 
   18300 0.0041087627 0.0027268194 0.0047170013 
   18400 0.0036790856  0.003108715 0.0048907721 
   18500 0.0043255633  0.002775013 0.0048702077 
   18600 0.0077476256 0.0023494943 0.0061022505 
   18700 0.0062587613   0.00257694 0.0056085275 
   18800 0.0041695856 0.0027736171 0.0047932601 
   18900 0.0057696148 0.0023378277 0.0051324849 
   19000 0.0058216013 0.0021318773 0.0049517155 
   19100 0.0048854185 0.0023364509 0.0047028255 
   19200 0.0034419783 0.0026464294 0.0043136376 
   19300 0.0039941852 0.0026091416  0.004543825 
   19400  0.004528246 0.0024413584 0.0046347276 
   19500 0.0050919758 0.0024661472  0.004932573 
   19600 0.0035928041 0.0024876348 0.0042278992 
   19700 0.0047768068 0.0023180868 0.0046318526 
   19800 0.0061721103 0.0024439513 0.0054335672 
   19900 0.0045381166 0.0025341481 0.0047322984 
   20000 0.0046872866 0.0025132396 0.0047836441 
   20100 0.0055377455 0.0024008535  0.005083199 
   20200 0.0065733771 0.0022474003 0.0054313798 
   20300 0.0039388964 0.0021984567 0.0041063596 
   20400 0.0046536655 0.0025503221 0.0048044414 
   20500 0.0062398997 0.0027334633 0.0057559147 
   20600 0.0060992859 0.0030119396 0.0059662813 
   20700 0.0053947619 0.0026884253 0.0053015131 
   20800 0.0046507366 0.0020280308 0.0042807313 
   20900 0.0043281049 0.0020170235 0.0041134494 
   21000  0.003478412  0.002298415 0.0039832708 
   21100 0.0047371498 0.0019931988 0.0042877557 
   21200 0.0036694741 0.0021399708 0.0039173723 
   21300 0.0047757035   0.00205597 0.0043692014 
   21400 0.0044330414 0.0021788365  0.004326091 
   21500 0.0038075514 0.0024057497 0.0042500324 
   21600 0.0044990553 0.0023902791  0.004569509 
   21700 0.0054221441 0.0018203163 0.0044466674 
   21800 0.0062168885 0.0017363282 0.0047476336 
   21900 0.0031667196 0.0023389918 0.0038728716 
   22000 0.0068129757 0.0022438624 0.0055438975 
   22100 0.0048621698 0.0021951456 0.0045502591 
   22200 0.0047262245 0.0022356702 0.0045249352 
   22300 0.0048369678 0.0022039874 0.0045468936 
   22400 0.0058063515 0.0021754634 0.0049879149 
   22500 0.0046642265 0.0020026641 0.0042618988 
   22600 0.0044478717   0.00205649 0.0042109279 
   22700 0.0054608853 0.0020795239 0.0047246402 
   22800 0.0043516764 0.0024122767   0.00452012 
   22900 0.0060006557   0.00210103 0.0050075976 
   23000 0.0048285789 0.0021268627 0.0044657057 
   23100 0.0053452629 0.0023484351 0.0049375468 
   23200   0.00539713 0.0026458247 0.0052600596 
   23300 0.0065519615 0.0020624241 0.0052360304 
   23400 0.0036816895 0.0023752476 0.0041585659 
   23500 0.0054848129 0.0023192137   0.00497592 
   23600 0.0069965273 0.0019342486 0.0053231916 
   23700 0.0069605719  0.002174174  0.005545701 
   23800 0.0046501748 0.0030409989 0.0052934273 
   23900  0.003739566 0.0032321498 0.0050435021 
   24000 0.0043561983 0.0028585447 0.0049685782 
   24100 0.0062037232 0.0023361475 0.0053410759 
   24200 0.0049149083 0.0022337997 0.0046144585 
   24300 0.0035246151  0.002371077 0.0040783124 
   24400 0.0058745595 0.0018309838 0.0046764735 
   24500 0.0045956929 0.0018721592  0.004098198 
   24600 0.0064914805  0.002557867 0.0057021778 
   24700 0.0058060034 0.0026541114 0.0054663943 
   24800 0.0045469185 0.0028119372 0.0050143509 
   24900 0.0052429718 0.0024858103 0.0050253748 
   25000  0.004391337 0.0021965416 0.0043235954 
   25100 0.0062471599 0.0024601534 0.0054861215 
   25200 0.0053423688 0.0031774557 0.0057651656 
   25300  0.006232667  0.002943222 0.0059621701 
   25400 0.0069213212 0.0026812575 0.0060337725 
   25500 0.0041371976 0.0027565442 0.0047604993 
   25600 0.0045585822 0.0027180791 0.0049261424 
   25700 0.0057117094 0.0024806481 0.0052472574 
   25800 0.0048998789 0.0026598604 0.0050332393 
   25900 0.0059730451 0.0027557051 0.0056488988 
   26000 0.0045996568 0.0027147036 0.0049426624 
   26100   0.00570674 0.0025598525 0.0053240547 
   26200  0.004458333 0.0027069462 0.0048664512 
   26300 0.0059340566 0.0027020952 0.0055764039 
   26400 0.0050094867 0.0029254422 0.0053519123 
   26500 0.0038587823 0.0038289601 0.0056980578 
   26600 0.0056426038  0.003360678 0.0060938142 
   26700  0.006226119 0.0024483174 0.0054640937 
   26800 0.0053345043 0.0019745268 0.0045584274 
   26900 0.0071585677 0.0020619525 0.0055293837 
   27000 0.0060976442 0.0024477573 0.0054013036 
   27100 0.0068042391 0.0029674796 0.0062632829 
   27200 0.0037294751 0.0030294554 0.0048359199 
   27300 0.0042275829 0.0028001065  0.004847842 
   27400 0.0060881284 0.0024768988  0.005425836 
   27500 0.0059957634 0.0022502702 0.0051544681 
   27600 0.0045343813 0.0023580989 0.0045544398 
   27700 0.0044395053 0.0023388947 0.0044892801 
   27800 0.0057459859 0.0022486192 0.0050318311 
   27900 0.0051719344 0.0021042472 0.0046094029 
   28000 0.0038026678 0.0019712261 0.0038131433 
   28100 0.0044014904 0.0020927764 0.0042247483 
   28200 0.0036489224 0.0026090119 0.0043764587 
   28300 0.0047971392 0.0028358486 0.0051594629 
   28400 0.0053298121 0.0027460627 0.0053276905 
   28500 0.0058943652 0.0026867661 0.0055418493 
   28600 0.0053011671 0.0030047647 0.0055725175 
   28700 0.0037358735 0.0035898414 0.0053994051 
   28800 0.0066819299 0.0027931049 0.0060296647 
   28900 0.0051863171 0.0025934001 0.0051055225 
   29000 0.0065148623 0.0026440135 0.0057996499 
   29100 0.0044842166 0.0026818101 0.0048538525 
   29200 0.0042608461 0.0029025474 0.0049663947 
   29300 0.0049210679 0.0026361183 0.0050197606 
   29400 0.0079301246 0.0027368595 0.0065780135 
   29500 0.0061082788 0.0029139516 0.0058726492 
   29600 0.0061626717 0.0031552846 0.0061403287 
   29700 0.0046911451 0.0030340737 0.0053063472 
   29800 0.0082187418 0.0027008049 0.0066817579 
   29900 0.0057392563 0.0026748692 0.0054548215 
   30000 0.0065714218 0.0029027788 0.0060858113 
   30100 0.0037370861 0.0028996438 0.0047097949 
   30200 0.0034713667 0.0026843731 0.0043658163 
   30300 0.0065557293  0.002194673 0.0053701044 
   30400 0.0050640715 0.0022797762 0.0047326858 
   30500  0.005880424 0.0025274283 0.0053757587 
   30600 0.0061953601 0.0025701042 0.0055709817 
   30700 0.0045487595 0.0025391096  0.004742415 
   30800 0.0057637242 0.0023478325 0.0051396364 
   30900 0.0042427032 0.0021948528 0.0042499121 
   31000  0.004614762  0.002511964 0.0047472394 
   31100 0.0050690898 0.0024793681 0.0049347085 
   31200 0.0060258442 0.0023703897 0.0052891579 
   31300 0.0043381449 0.0024380526 0.0045393415 
   31400 0.0044555622 0.0025029125 0.0046610755 
   31500 0.0049099903 0.0026267182 0.0050049948 
   31600 0.0052345877 0.0024021579 0.0049376613 
   31700  0.004306051 0.0024563356  0.004542079 
   31800 0.0046966007 0.0022951613 0.0045700773 
   31900 0.0052560475 0.0018648856 0.0044107836 
   32000 0.0052206404 0.0015803409 0.0041090886 
   32100 0.0055329908 0.0020125269 0.0046925694 
   32200 0.0044663304 0.0024841268 0.0046475056 
   32300 0.0047421672 0.0024036263 0.0047006135 
   32400 0.0047393289 0.0024964865 0.0047920989 
   32500 0.0053309282 0.0024461464 0.0050283148 
   32600 0.0045131556 0.0020021325 0.0041881923 
   32700 0.0063323935 0.0019905115 0.0050577646 
   32800   0.00417851 0.0023924234 0.0044163892 
   32900  0.004600926 0.0024219921 0.0046505657 
   33000  0.004484267 0.0019218828 0.0040939496 
   33100 0.0046086463 0.0018660363 0.0040983494 
   33200 0.0046378852 0.0017061614 0.0039526371 
   33300 0.0046589008 0.0014963216 0.0037529767 
   33400 0.0052237887 0.0016950923 0.0042253649 
   33500 0.0044241364 0.0024330979 0.0045760389 
   33600 0.0045334119 0.0029625029 0.0051583743 
   33700 0.0073173898  0.002525756 0.0060701167 
   33800 0.0063468203 0.0022228965 0.0052971376 
   33900 0.0041757672 0.0024386279 0.0044612651 
   34000 0.0056791943 0.0028058864 0.0055567461 
   34100 0.0051152626 0.0026458418 0.0051235471 
   34200 0.0053590166 0.0026025504  0.005198324 
   34300 0.0047103571 0.0026109898  0.004892569 
   34400  0.006356701 0.0025914027 0.0056704297 
   34500 0.0065703552 0.0023538544 0.0055363702 
   34600 0.0054345935 0.0020387189 0.0046711001 
   34700 0.0037040503 0.0022606156 0.0040547649 
   34800 0.0043011926  0.002230249 0.0043136392 
   34900 0.0053615635 0.0020682833 0.0046652906 
   35000 0.0056059548 0.0019305735 0.0046459578 
   35100  0.004866536 0.0019682173 0.0043254457 
   35200  0.004046129 0.0019006801 0.0038605239 
   35300 0.0053182101 0.0021499493 0.0047259573 
   35400 0.0056730014 0.0022430521 0.0049909121 
   35500 0.0050378578  0.002293429 0.0047336414 
   35600 0.0048166136  0.002309674 0.0046427212 
   35700 0.0060467553 0.0022347466 0.0051636438 
   35800 0.0050778205 0.0024091747  0.004868744 
   35900 0.0057444651  0.002365678 0.0051481533 
   36000 0.0037373157 0.0029433877   0.00475365 
   36100 0.0044420233  0.002708286 0.0048598911 
   36200 0.0064090347 0.0020937648  0.005198141 
   36300 0.0038767202 0.0021161844 0.0039939708 
   36400 0.0049224964 0.0022198613 0.0046041955 
   36500 0.0062576702 0.0023992868 0.0054303458 
   36600 0.0068333215 0.0026079363 0.0059178264 
   36700  0.004823795 0.0033011504 0.0056376761 
   36800 0.0039408298 0.0032587031 0.0051675425 
   36900 0.0059127708 0.0025754856 0.0054394839 
   37000 0.0038861345 0.0024349443 0.0043172907 
   37100 0.0052590381 0.0020770283 0.0046243749 
   37200 0.0046505468 0.0021376723 0.0043902809 
   37300  0.005965779 0.0021560534 0.0050457276 
   37400 0.0048574839 0.0023933929 0.0047462367 
   37500 0.0048096858 0.0026575397 0.0049872313 
   37600 0.0045969002 0.0022904851 0.0045171086 
   37700 0.0044576526  0.002116377 0.0042755525 
   37800 0.0046271137 0.0019505488  0.004191807 
   37900 0.0046384834 0.0018878813 0.0041346467 
   38000 0.0055814829 0.0020098165 0.0047133473 
   38100 0.0061789786 0.0020397265 0.0050326692 
   38200 0.0039934154 0.0024072471 0.0043415577 
   38300 0.0040523258 0.0027883485 0.0047511938 
   38400 0.0043774288 0.0029042723 0.0050245894 
   38500 0.0053040695 0.0027662401 0.0053353988 
   38600 0.0043980115 0.0023611466 0.0044914334 
   38700 0.0052360037 0.0022560692 0.0047922585 
   38800 0.0053674308  0.002444176 0.0050440253 
   38900 0.0037194618 0.0025293075 0.0043309218 
   39000 0.0064487573 0.0025099329 0.0056335497 
   39100 0.0048684541 0.0027239618 0.0050821192 
   39200 0.0055643957 0.0025321884 0.0052274425 
   39300 0.0050887416 0.0022586806 0.0047235398 
   39400 0.0057648557  0.001980966  0.004773318 
   39500 0.0050165498 0.0027845414 0.0052144327 
   39600  0.004160165 0.0032834372 0.0052985172 
   39700 0.0056778723 0.0030743002 0.0058245196 
   39800 0.0037470053 0.0031516298 0.0049665855 
   39900 0.0044401759 0.0026970966 0.0048478068 
   40000 0.0053815571 0.0022558865 0.0048625783 
   40100 0.0040061741 0.0025802778 0.0045207684 
   40200 0.0043343164  0.002784073 0.0048835075 
   40300 0.0055498878 0.0021215433 0.0048097702 
   40400 0.0054909886 0.0016197814  0.004279479 
   40500 0.0058237123  0.002259404 0.0050802646 
   40600 0.0065764074 0.0028570797  0.006042527 
   40700 0.0042371294 0.0034066642 0.0054590237 
   40800 0.0056277818 0.0028819829 0.0056079397 
   40900 0.0052906344 0.0025290186 0.0050916696 
   41000 0.0058860037 0.0020456602 0.0048966932 
   41100  0.005187224 0.0015923512 0.0041049128 
   41200 0.0063306299 0.0019384802 0.0050048791 
   41300 0.0057232407 0.0022915002 0.0050636949 
   41400 0.0055480405 0.0024021893 0.0050895214 
   41500 0.0065173823  0.002367511  0.005524368 
   41600 0.0052841884 0.0023461879 0.0049057166 
   41700 0.0064489978 0.0022650038 0.0053887371 
   41800  0.004878109 0.0020820948 0.0044449288 
   41900 0.0039342869 0.0022204994 0.0041261696 
   42000 0.0040252772 0.0022524169 0.0042021606 
   42100 0.0052347383 0.0024071018 0.0049426782 
   42200 0.0046689272 0.0026784376 0.0049399492 
   42300 0.0052599071 0.0024664848 0.0050142523 
   42400 0.0064853074 0.0021381796 0.0052795004 
   42500 0.0042754494 0.0023190535 0.0043899743 
   42600 0.0049838789 0.0025827784 0.0049968448 
   42700 0.0040520816 0.0021845472 0.0041472742 
   42800 0.0056220344 0.0017174716 0.0044406445 
   42900 0.0053090252 0.0019234136 0.0044949726 
   43000 0.0045407695 0.0021456665 0.0043451017 
   43100 0.0052245584 0.0022342112 0.0047648567 
   43200  0.006983808   0.00257731 0.0059600919 
   43300 0.0049851462  0.002521204 0.0049358842 
   43400 0.0053943598 0.0025659372 0.0051788302 
   43500 0.0066085372 0.0028160894 0.0060170996 
   43600 0.0045537743 0.0033760835 0.0055818179 
   43700 0.0046170795 0.0027598556 0.0049962535 
   43800 0.0054021665 0.0021232233 0.0047398977 
   43900 0.0032681492 0.0020671974 0.0036502072 
   44000 0.0046173021 0.0019689048 0.0042054106 
   44100 0.0052818031 0.0021807376  0.004739111 
   44200 0.0041104078  0.002303313 0.0042942917 
   44300 0.0062069737 0.0024496712 0.0054561741 
   44400 0.0053258703  0.003022689 0.0056024074 
   44500 0.0040442837 0.0031609962 0.0051199461 
   44600 0.0060251414 0.0028638987 0.0057823265 
   44700 0.0059333962 0.0026630672  0.005537056 
   44800 0.0065785077 0.0022061282 0.0053925929 
   44900 0.0053248172 0.0022803214 0.0048595298 
   45000 0.0045298032 0.0020715219 0.0042656453 
   45100 0.0050084278 0.0015042478  0.003930205 
   45200 0.0049256254 0.0020614536 0.0044473034 
   45300 0.0053536816 0.0029436299 0.0055368194 
   45400 0.0045718871 0.0030470964 0.0052616042 
   45500 0.0050756486 0.0026533923 0.0051119096 
   45600 0.0038669096 0.0024963185 0.0043693529 
   45700 0.0043417148 0.0022027871 0.0043058053 
   45800 0.0032841316 0.0022042516 0.0037950028 
   45900 0.0035436246 0.0021887281 0.0039051713 
   46000 0.0052893192   0.00250696  0.005068974 
   46100 0.0053124675 0.0032300244 0.0058032508 
   46200 0.0048654926 0.0029885238 0.0053452467 
   46300 0.0059746226 0.0024159977 0.0053099555 
   46400 0.0054690352 0.0022502901  0.004899354 
   46500 0.0039739334 0.0021973659 0.0041222399 
   46600 0.0045724571 0.0019061643 0.0041209482 
   46700  0.003295981 0.0019217918 0.0035182826 
   46800 0.0053244735 0.0016401145 0.0042191564 
   46900 0.0039470865 0.0015661805 0.0034780506 
   47000 0.0063589274 0.0018933993 0.0049735047 
   47100 0.0054772562 0.0023139291 0.0049669751 
   47200  0.006594111 0.0026968225  0.005890845 
   47300 0.0036136636 0.0039358535 0.0056862218 
   47400 0.0058146104 0.0038984656 0.0067149176 
   47500 0.0054452746 0.0035425987 0.0061801536 
   47600 0.0045761947 0.0035850182 0.0058016125 
   47700 0.0051535026 0.0031932889 0.0056895167 
   47800 0.0052469625 0.0025042489 0.0050457464 
   47900 0.0049933739 0.0023640345 0.0047826999 
   48000 0.0043841524  0.002218541 0.0043421148 
   48100  0.005161721 0.0021590903 0.0046592989 
   48200 0.0045215183 0.0028047623 0.0049948727 
   48300 0.0040565793 0.0027256699 0.0046905755 
   48400 0.0039642697 0.0025143864 0.0044345796 
   48500 0.0045308443 0.0022107554 0.0044053831 
   48600 0.0050679266  0.002314686  0.004769463 
   48700  0.004716566 0.0024959287 0.0047805154 
   48800 0.0048992335 0.0024843931 0.0048574593 
   48900 0.0054681917 0.0025542331 0.0052028884 
   49000 0.0043790882 0.0026056225 0.0047267433 
   49100 0.0059454311 0.0019653751 0.0048451933 
   49200 0.0065219207 0.0020224515 0.0051815068 
   49300 0.0052498955 0.0022934261 0.0048363443 
   49400 0.0057090802 0.0021817854 0.0049471211 
   49500 0.0044969959 0.0023189671 0.0044971995 
   49600 0.0054483191 0.0024785374  0.005117567 
   49700 0.0041215387  0.002652183 0.0046485533 
   49800 0.0045978431 0.0023556088  0.004582689 
   49900 0.0068448867 0.0022844991 0.0055999911 
   50000 0.0052749943 0.0025972302 0.0051523056 
   50100 0.0047055856  0.002582575 0.0048618431 
   50200 0.0050178433  0.002507672 0.0049381898 
   50300 0.0059853163 0.0024571687 0.0053563063 
   50400 0.0058095638 0.0021238545 0.0049378619 
   50500 0.0037551958 0.0022869157 0.0041058387 
   50600 0.0045309827 0.0020666191 0.0042613138 
   50700 0.0060797432 0.0021506413 0.0050955169 
   50800 0.0073224415 0.0024790314  0.006025839 
   50900 0.0066204903 0.0030056597 0.0062124597 
   51000 0.0064160081  0.003075126 0.0061828799 
   51100 0.0051894886 0.0028467735  0.005360432 
   51200 0.0054352696 0.0026879873  0.005320696 
   51300 0.0037015747 0.0028878786 0.0046808288 
   51400 0.0050805338 0.0027795993 0.0052404829 
   51500 0.0044349883 0.0023907367 0.0045389341 
   51600 0.0067712204 0.0021611055 0.0054409153 
   51700 0.0043893313 0.0024355791 0.0045616614 
   51800 0.0055598138 0.0021599462 0.0048529811 
   51900 0.0057694273 0.0023199909 0.0051145572 
   52000 0.0046102633 0.0020865575 0.0043196538 
   52100  0.006293221 0.0019125746 0.0049608536 
   52200 0.0050769648 0.0021093166 0.0045684715 
   52300 0.0053324923 0.0025602043 0.0051431303 
   52400 0.0055370312 0.0029361229 0.0056181224 
   52500 0.0059219731 0.0029819975 0.0058504533 
   52600 0.0069756123 0.0024589185 0.0058377307 
   52700 0.0054257759 0.0028626702 0.0054907803 
   52800 0.0066519808 0.0028388932 0.0060609464 
   52900 0.0070993893 0.0026519004 0.0060906671 
   53000 0.0055575483 0.0021612865 0.0048532239 
   53100 0.0039142503 0.0015752977 0.0034712626 
   53200  0.005671623 0.0014827971 0.0042299895 
   53300  0.004714289 0.0017402915 0.0040237752 
   53400 0.0032908642 0.0019278805 0.0035218928 
   53500 0.0063594976 0.0018282793 0.0049086609 
   53600 0.0043875679 0.0021961391 0.0043213673 
   53700 0.0053939072 0.0024044349 0.0050171086 
   53800 0.0051962512 0.0022872159 0.0048041501 
   53900 0.0060413858 0.0025347518  0.005461048 
   54000 0.0052178755 0.0023209171 0.0048483256 
   54100 0.0066183952 0.0020712713 0.0052770565 
   54200 0.0051764676 0.0022852071 0.0047925586 
   54300 0.0068324508  0.002454935 0.0057644034 
   54400 0.0057637693 0.0020693689 0.0048611947 
   54500  0.006514134 0.0020046146 0.0051598983 
   54600 0.0040194675 0.0029329674  0.004879897 
   54700 0.0053137647 0.0033104681 0.0058843229 
   54800 0.0050536153 0.0033909769 0.0058388218 
   54900 0.0052287031 0.0034964003 0.0060290534 
   55000 0.0041828104  0.003549394 0.0055754428 
   55100 0.0054204398 0.0027846845 0.0054102101 
   55200 0.0045568844 0.0027070451  0.004914286 
   55300  0.004755213 0.0026385607  0.004941867 
   55400 0.0049532355 0.0026775476  0.005076771 
   55500 0.0053772798 0.0028591498 0.0054637698 
   55600 0.0066274748 0.0029343728 0.0061445559 
   55700 0.0043825825 0.0031005217  0.005223335 
   55800 0.0049227528 0.0025809732 0.0049654316 
   55900  0.004736272 0.0022206152  0.004514747 
   56000 0.0051137134 0.0024368963 0.0049138512 
   56100 0.0047775211 0.0029770542  0.005291166 
   56200 0.0052299403 0.0030831203 0.0056163727 
   56300 0.0058443789 0.0026874798 0.0055183508 
   56400 0.0044065839 0.0021668964 0.0043013354 
   56500 0.0045195714 0.0029116958 0.0051008632 
   56600  0.003664048 0.0035931323 0.0053679055 
   56700 0.0063695461 0.0030003134 0.0060855623 
   56800 0.0041137157 0.0023919422 0.0043845233 
   56900 0.0058646962 0.0022073949 0.0050481072 
   57000  0.005224381 0.0023373907 0.0048679503 
   57100 0.0053213426  0.002173108 0.0047506334 
   57200 0.0053842679 0.0024436095 0.0050516143 
   57300 0.0049895398 0.0023650467 0.0047818551 
   57400 0.0066205572 0.0026573497 0.0058641821 
   57500 0.0058780438 0.0027664902 0.0056136676 
   57600 0.0055279171 0.0030678656 0.0057454504 
   57700 0.0050459565 0.0027267956 0.0051709308 
   57800 0.0063954161 0.0022292864 0.0053270661 
   57900  0.005075139 0.0019061617 0.0043644322 
   58000 0.0042745802 0.0024821244 0.0045526242 
   58100 0.0050363203  0.002520784 0.0049602516 
   58200 0.0045827124 0.0026352459 0.0048549972 
   58300 0.0056132398 0.0025435729 0.0052624859 
   58400 0.0048940977 0.0021993203 0.0045698989 
   58500 0.0059738789 0.0022023318 0.0050959294 
   58600 0.0037524483 0.0026099334 0.0044275255 
   58700 0.0046312286 0.0025029436  0.004746195 
   58800 0.0055867619 0.0024105288 0.0051166166 
   58900 0.0034018232 0.0027636674 0.0044114256 
   59000 0.0044535052 0.0028344395 0.0049916061 
   59100 0.0049781032 0.0027751038 0.0051863726 
   59200 0.0042620661  0.002715464 0.0047799022 
   59300 0.0062080431 0.0028041405 0.0058111614 
   59400 0.0056154157 0.0025429718 0.0052629388 
   59500 0.0045760681 0.0024193192 0.0046358522 
   59600 0.0061684031  0.002131142 0.0051189622 
   59700 0.0051588639 0.0020513772 0.0045502019 
   59800 0.0039921776 0.0023190753 0.0042527863 
   59900 0.0051792038 0.0021155321  0.004624209 
   60000 0.0085214709 0.0024951829 0.0066227704 
   60100 0.0041324401 0.0031552851 0.0051569358 
   60200 0.0052571876 0.0026437888  0.005190239 
   60300  0.004002463 0.0027823675 0.0047210605 
   60400 0.0044776187 0.0035162876 0.0056851342 
   60500 0.0047321493  0.003622985 0.0059151198 
   60600 0.0055507193 0.0031455662 0.0058341958 
   60700 0.0043482788 0.0029896928 0.0050958903 
   60800 0.0055166321 0.0030496612 0.0057217799 
   60900 0.0041068859 0.0034214622  0.005410735 
   61000 0.0047354918 0.0032691896 0.0055629434 
   61100 0.0040352906 0.0036906491  0.005645243 
   61200 0.0035713527 0.0035399035 0.0052697775 
   61300 0.0035874875 0.0034774164 0.0052151057 
   61400 0.0053141533 0.0031878039 0.0057618469 
   61500 0.0044374829 0.0028316823  0.004981088 
   61600 0.0056663048 0.0027569132 0.0055015295 
   61700 0.0043989881 0.0026276066 0.0047583664 
   61800 0.0049284597 0.0028791371 0.0052663597 
   61900 0.0046128058 0.0026828783 0.0049172061 
   62000 0.0047005911 0.0022089286 0.0044857774 
   62100 0.0059848183 0.0023779939 0.0052768903 
   62200 0.0050457363 0.0031166456 0.0055606741 
   62300 0.0051307569 0.0030907819 0.0055759922 
   62400 0.0053395106 0.0029051492 0.0054914746 
   62500 0.0057538134 0.0026118837 0.0053988871 
   62600 0.0067512683 0.0026920204  0.005962166 
   62700 0.0049335223 0.0033157158 0.0057053907 
   62800 0.0066583709 0.0031719047 0.0063970531 
   62900 0.0056604495 0.0025964008 0.0053381811 
   63000 0.0057251295 0.0019524824  0.004725592 
   63100 0.0041311537 0.0019724666 0.0039734941 
   63200 0.0051840596 0.0020831873 0.0045942162 
   63300 0.0054675107 0.0021262031 0.0047745286 
   63400 0.0038542072 0.0022187537 0.0040856353 
   63500 0.0046219386 0.0023070271 0.0045457786 
   63600 0.0050516575 0.0024367037 0.0048836003 
   63700 0.0046478151 0.0025776664 0.0048289519 
   63800 0.0056502693 0.0028239324 0.0055607816 
   63900 0.0055870269 0.0028369294 0.0055431455 
   64000 0.0047664791 0.0026579989 0.0049667622 
   64100 0.0050980586 0.0027325775 0.0052019496 
   64200 0.0058885161 0.0025149388 0.0053671887 
   64300 0.0043977384 0.0025800999 0.0047102544 
   64400 0.0061610225 0.0029288683 0.0059131135 
   64500 0.0051689689 0.0028810019 0.0053847212 
   64600 0.0052574598 0.0026969133 0.0052434954 
   64700 0.0070000882 0.0024651362 0.0058558039 
   64800 0.0055702766 0.0022683983 0.0049665011 
   64900 0.0048982623  0.002261148 0.0046337437 
   65000 0.0037357972 0.0023018586 0.0041113854 
   65100  0.005190907 0.0024704663 0.0049848119 
   65200 0.0056559159 0.0024443385 0.0051839228 
   65300 0.0056360738 0.0022425707 0.0049725439 
   65400 0.0052455216 0.0024318732 0.0049726727 
   65500 0.0052292675 0.0025264064 0.0050593329 
   65600 0.0051657648 0.0023548962 0.0048570635 
   65700 0.0051576088 0.0022324868 0.0047307036 
   65800  0.004206062 0.0023894505 0.0044267618 
   65900 0.0057350172 0.0022972565 0.0050751554 
   66000 0.0046198031 0.0027644494 0.0050021666 
   66100 0.0050726425 0.0022125636 0.0046696248 
   66200 0.0039516333 0.0020875214 0.0040015938 
   66300 0.0046344603 0.0020508996 0.0042957163 
   66400 0.0039616923 0.0019715604 0.0038905051 
   66500 0.0055228423 0.0023578269 0.0050329536 
   66600 0.0047682778 0.0023663754   0.00467601 
   66700 0.0045358367 0.0023032763 0.0045003222 
   66800 0.0046019622 0.0030222299 0.0052513053 
   66900  0.005954386  0.002711498 0.0055956537 
   67000 0.0035683027 0.0025579392 0.0042863358 
   67100 0.0058657174 0.0024879614 0.0053291683 
   67200 0.0043738699  0.002760087 0.0048786802 
   67300 0.0058659646  0.002460886 0.0053022126 
   67400 0.0038098975 0.0028745564 0.0047199755 
   67500 0.0038953329 0.0029618368 0.0048486387 
   67600 0.0053886435 0.0028017624 0.0054118866 
   67700 0.0059288642 0.0027798807 0.0056516743 
   67800   0.00495988 0.0025676834 0.0049701253 
   67900 0.0053971201 0.0024119027 0.0050261328 
   68000 0.0046935833 0.0025887729 0.0048622274 
   68100 0.0056193302  0.002139416  0.004861279 
   68200 0.0053158769 0.0022803846 0.0048552625 
   68300 0.0075376778 0.0020376264 0.0056886891 
   68400 0.0055261728 0.0021690468 0.0048457868 
   68500 0.0040951814 0.0024791585 0.0044627619 
   68600 0.0064530288 0.0025333628 0.0056590486 
   68700 0.0048878572 0.0025416785 0.0049092344 
   68800 0.0051290792 0.0028152054 0.0052996032 
   68900 0.0062209031 0.0028203005 0.0058335505 
   69000 0.0052627696 0.0031312507 0.0056804048 
   69100 0.0042659807 0.0031389875 0.0052053219 
   69200 0.0036939458 0.0029538927 0.0047431477 
   69300 0.0042977055 0.0029706404 0.0050523415 
   69400 0.0064085619 0.0030063924 0.0061105395 
   69500 0.0044684465 0.0034081076 0.0055725113 
   69600  0.005055812 0.0033246091  0.005773518 
   69700 0.0054566446 0.0031986951 0.0058417573 
   69800  0.006118707 0.0028164054  0.005780154 
   69900 0.0060257167 0.0028222811 0.0057409876 
   70000 0.0044050891 0.0029129649 0.0050466799 
   70100 0.0053569772 0.0028746143 0.0054694001 
   70200 0.0061882542 0.0029752974 0.0059727331 
   70300 0.0051332842 0.0028969839 0.0053834184 
   70400 0.0060967831 0.0030666586 0.0060197879 
   70500 0.0067735412 0.0034327777 0.0067137118 
   70600 0.0064388738  0.003645128 0.0067639575 
   70700 0.0051559827 0.0036292595 0.0061266886 
   70800 0.0055967256 0.0032571965 0.0059681105 
   70900 0.0059293698 0.0026702992 0.0055423377 
   71000 0.0041158308 0.0029276399 0.0049212455 
   71100 0.0052727553 0.0028665516 0.0054205425 
   71200 0.0041430302 0.0026970407 0.0047038209 
   71300 0.0054607384 0.0027403739  0.005385419 
   71400 0.0043737421 0.0031448241 0.0052633554 
   71500 0.0040594443 0.0033459378 0.0053122311 
   71600 0.0052028597 0.0032170397 0.0057371749 
   71700  0.007574817 0.0027809884 0.0064500404 
   71800 0.0047298876 0.0023385684 0.0046296077 
   71900  0.006992808 0.0021680101 0.0055551514 
   72000 0.0050197245 0.0023885617 0.0048199908 
   72100 0.0059395252 0.0021289044 0.0050058619 
   72200 0.0055180471 0.0020649614 0.0047377655 
   72300 0.0039998329 0.0022792577 0.0042166767 
   72400 0.0037651724  0.002068807 0.0038925624 
   72500 0.0043523048 0.0018809732 0.0039891208 
   72600 0.0049788127 0.0018551122 0.0042667246 
   72700 0.0047552996 0.0021749939 0.0044783421 
   72800 0.0044776618 0.0026091234 0.0047779909 
   72900  0.004903748 0.0025181189 0.0048933719 
   73000 0.0044116452 0.0019925648 0.0041294555 
   73100 0.0049791603 0.0020831128 0.0044948936 
   73200 0.0066547778 0.0019736074 0.0051970154 
   73300 0.0055864936 0.0022116424 0.0049176002 
   73400  0.005373582  0.002627381 0.0052302098 
   73500 0.0060095804 0.0030486038 0.0059594943 
   73600 0.0051782902  0.003045841 0.0055540753 
   73700 0.0062307806 0.0034801886  0.006498223 
   73800 0.0053675987 0.0032160227 0.0058159533 
   73900 0.0039545086 0.0027601397 0.0046756048 
   74000 0.0057908549 0.0017766516 0.0045815969 
   74100 0.0062957107 0.0013890008 0.0044384857 
   74200 0.0057880012 0.0014406256 0.0042441886 
   74300 0.0024619025 0.0016769236 0.0028694076 
   74400 0.0041126186 0.0017680954 0.0037601451 
   74500 0.0055050211 0.0020439014  0.004710396 
   74600 0.0051084761  0.002319311 0.0047937291 
   74700 0.0062549989 0.0023294771 0.0053592422 
   74800 0.0051671485 0.0022593727 0.0047622103 
   74900 0.0047471763 0.0025224221 0.0048218356 
   75000 0.0063796556 0.0024093785 0.0054995242 
   75100 0.0043232576 0.0019125573 0.0040066352 
   75200 0.0042162223 0.0016000061 0.0036422387 
   75300 0.0051106201  0.002100216 0.0045756726 
   75400 0.0055970262 0.0029626684  0.005673728 
   75500 0.0061324315 0.0031964213 0.0061668178 
   75600 0.0057169124 0.0029827433 0.0057518727 
   75700  0.004995039 0.0028355413 0.0052550133 
   75800 0.0047508214 0.0024963505 0.0047975296 
   75900 0.0054783765 0.0024770136 0.0051306022 
   76000 0.0044036393 0.0025321854 0.0046651982 
   76100 0.0046577714 0.0027900794 0.0050461874 
   76200 0.0039737745  0.002718465  0.004643262 
   76300  0.004319863 0.0024646827 0.0045571164 
   76400 0.0053399403 0.0024510396 0.0050375732 
   76500 0.0050526122  0.002234256  0.004681615 
   76600 0.0051715975 0.0019446133 0.0044496058 
   76700 0.0055522031 0.0019452493 0.0046345976 
   76800 0.0038131482  0.002327126 0.0041741197 
   76900 0.0040678617 0.0026498714 0.0046202419 
   77000 0.0053819537 0.0025018066 0.0051086905 
   77100 0.0036226971 0.0024242587 0.0041790027 
   77200  0.002852076 0.0027748416 0.0041563159 
   77300 0.0049025807 0.0025260202 0.0049007077 
   77400 0.0067068601 0.0020373937  0.005286029 
   77500 0.0043989757 0.0025532618 0.0046840156 
   77600 0.0054212393 0.0024288604 0.0050547732 
   77700 0.0059859819 0.0020363302 0.0049357902 
   77800 0.0054187647  0.002100739 0.0047254531 
   77900 0.0050672423 0.0022699616 0.0047244071 
   78000 0.0061939847 0.0024867389 0.0054869502 
   78100  0.005219425 0.0027138436 0.0052420025 
   78200 0.0040271502  0.002328614 0.0042792649 
   78300 0.0042986731 0.0022071633 0.0042893331 
   78400 0.0054347528 0.0025177088 0.0051501672 
   78500 0.0041401178   0.00279658 0.0048019496 
   78600 0.0050588583 0.0023345263 0.0047849108 
   78700 0.0054738893 0.0024024742 0.0050538893 
   78800 0.0038581744 0.0025593644 0.0044281676 
   78900 0.0050637035 0.0026483839 0.0051011152 
   79000  0.005092456 0.0024700373 0.0049366957 
   79100 0.0047864942 0.0026050141 0.0049234722 
   79200 0.0061461885 0.0029796956 0.0059567557 
   79300 0.0062181841 0.0024913548 0.0055032877 
   79400 0.0041666997 0.0026500667 0.0046683119 
   79500 0.0048643504  0.002252557 0.0046087267 
   79600 0.0042406338 0.0020607374 0.0041147944 
   79700 0.0048631933 0.0019825737  0.004338183 
   79800 0.0039352932 0.0022716342 0.0041777918 
   79900 0.0039307628 0.0024534267   0.00435739 
   80000 0.0053981535 0.0025285193 0.0051432499 
   80100 0.0054419713 0.0023735372  0.005009492 
   80200 0.0071553211 0.0022819468 0.0057478055 
   80300 0.0059707151 0.0024440604 0.0053361255 
   80400 0.0054733352 0.0023803218 0.0050314685 
   80500 0.0040412187 0.0024181102 0.0043755755 
   80600 0.0069092869  0.002025946 0.0053726318 
   80700 0.0058246785 0.0021096326 0.0049309613 
   80800 0.0044201205 0.0019492843 0.0040902802 
   80900 0.0056626651 0.0017091433 0.0044519967 
   81000 0.0048660439 0.0020592985 0.0044162885 
   81100 0.0052802444 0.0022588085 0.0048164269 
   81200 0.0048664522 0.0021670601 0.0045242478 
   81300 0.0055281565 0.0021091467 0.0047868475 
   81400 0.0054984089 0.0020322484 0.0046955402 
   81500 0.0046866787 0.0021090307 0.0043791407 
   81600 0.0049741319 0.0019310204 0.0043403655 
   81700 0.0046842211 0.0017014485 0.0039703681 
   81800 0.0063925195 0.0020627997 0.0051591763 
   81900 0.0044346871 0.0025557837 0.0047038353 
   82000 0.0037734041 0.0027099034  0.004537646 
   82100 0.0053658385 0.0019925692 0.0045916472 
   82200 0.0052790925 0.0019375435 0.0044946039 
   82300 0.0037822843 0.0018893339 0.0037213779 
   82400 0.0053220292 0.0020160549 0.0045939128 
   82500 0.0038616579 0.0023048155 0.0041753061 
   82600  0.003422423 0.0024089865 0.0040667226 
   82700  0.005708831 0.0027959358 0.0055611508 
   82800 0.0057781103 0.0026915996 0.0054903718 
   82900  0.006934625 0.0025436548 0.0059026138 
   83000 0.0053531189 0.0029533747 0.0055462917 
   83100 0.0063415276 0.0025958576  0.005667535 
   83200 0.0051146534  0.002061454 0.0045388642 
   83300 0.0040008152 0.0019205741 0.0038584689 
   83400 0.0041655114 0.0017729858 0.0037906554 
   83500 0.0044812926 0.0019101594 0.0040807855 
   83600 0.0054249906 0.0021723585 0.0048000883 
   83700 0.0056065971 0.0027468678 0.0054625633 
   83800 0.0057393594 0.0031072099 0.0058872121 
   83900 0.0059488315 0.0025222707  0.005403736 
   84000 0.0038694754 0.0027195554 0.0045938326 
   84100 0.0061566766 0.0024667113 0.0054488515 
   84200 0.0045715746 0.0023145028 0.0045288592 
   84300 0.0048773888  0.002537462 0.0048999472 
   84400  0.006989625 0.0022540003    0.0056396 
   84500  0.003651409 0.0022626508  0.004031302 
   84600 0.0065278773 0.0025693754  0.005731316 
   84700 0.0063278839 0.0024646575 0.0055297263 
   84800 0.0035234582 0.0023944469 0.0041011219 
   84900 0.0043152309 0.0020539534 0.0041441434 
   85000 0.0053842645 0.0021775168 0.0047855199 
   85100  0.003766182 0.0022804437 0.0041046881 
   85200 0.0036666244 0.0021686433 0.0039446645 
   85300 0.0058522216 0.0015944456 0.0044291154 
   85400 0.0038022024 0.0017641326 0.0036058244 
   85500 0.0040629033 0.0020881017 0.0040560705 
   85600 0.0051359146 0.0019991624  0.004486871 
   85700 0.0058570183 0.0021730326 0.0050100259 
   85800 0.0049081467 0.0022930728 0.0046704564 
   85900 0.0046546732 0.0024425959 0.0046972032 
   86000 0.0053927716 0.0025409769 0.0051531006 
   86100 0.0062595578 0.0022733413 0.0053053146 
   86200 0.0040003415 0.0023992409 0.0043369063 
   86300 0.0062539606 0.0023370501 0.0053663122 
   86400 0.0044035979 0.0020548255 0.0041878182 
   86500 0.0062510378 0.0022250694 0.0052529158 
   86600 0.0038269699 0.0025471656 0.0044008542 
   86700 0.0038589866 0.0023805185 0.0042497152 
   86800 0.0047820165 0.0019345409 0.0042508301 
   86900 0.0047232907 0.0017101745 0.0039980185 
   87000 0.0055167364 0.0018765046 0.0045486738 
   87100 0.0036603294  0.002110036  0.003883008 
   87200 0.0046559008 0.0021876442 0.0044428462 
   87300 0.0063419789 0.0019946734 0.0050665695 
   87400  0.006410608 0.0017269708 0.0048321091 
   87500 0.0044735746 0.0018036609 0.0039705486 
   87600 0.0048979401 0.0017077446 0.0040801844 
   87700 0.0051580557 0.0017812544 0.0042796877 
   87800 0.0047337073 0.0020297579 0.0043226474 
   87900 0.0052211444 0.0023760866 0.0049050784 
   88000 0.0050879658 0.0027862086  0.005250692 
   88100 0.0047113963 0.0025491347 0.0048312172 
   88200 0.0055646297 0.0025082623 0.0052036298 
   88300  0.004922443 0.0027477724 0.0051320807 
   88400 0.0055597162  0.002652983 0.0053459705 
   88500 0.0052260187 0.0023088836 0.0048402364 
   88600 0.0036710856 0.0021333307 0.0039115128 
   88700 0.0061207016 0.0021105911  0.005075306 
   88800 0.0053667786 0.0022533619 0.0048528953 
   88900 0.0041308683 0.0027674952 0.0047683845 
   89000 0.0050703932 0.0024964886 0.0049524603 
   89100 0.0066823854 0.0028045539 0.0060413343 
   89200 0.0049499426 0.0026405129 0.0050381413 
   89300 0.0051903679 0.0024260661 0.0049401506 
   89400 0.0045989655 0.0022322374 0.0044598614 
   89500 0.0063303028 0.0021498189 0.0052160593 
   89600 0.0035017783 0.0024365331 0.0041327069 
   89700  0.004078779 0.0026819841 0.0046576427 
   89800  0.005189722 0.0027979325 0.0053117041 
   89900 0.0056620974  0.002870494 0.0056130724 
   90000 0.0045474353 0.0033368588 0.0055395228 
   90100  0.006091785 0.0030416287  0.005992337 
   90200 0.0066719258 0.0029676075 0.0061993215 
   90300 0.0057946702  0.002999195 0.0058059884 
   90400 0.0045686739 0.0031319741 0.0053449256 
   90500 0.0040811246 0.0029780714 0.0049548662 
   90600 0.0072174178 0.0029946494 0.0064905861 
   90700 0.0060374831 0.0033360373 0.0062604432 
   90800 0.0053351696 0.0031031698 0.0056873925 
   90900 0.0050702227 0.0027112676 0.0051671567 
   91000 0.0053713025 0.0026856519 0.0052873765 
   91100  0.004012202 0.0027058275 0.0046492379 
   91200 0.0056168646 0.0023061609 0.0050268297 
   91300 0.0046048244 0.0025683154 0.0047987772 
   91400 0.0042264081 0.0026839757 0.0047311421 
   91500 0.0063561269 0.0035624554 0.0066412044 
   91600 0.0036731032   0.00406701 0.0058461693 
   91700  0.005273533 0.0036864882 0.0062408557 
   91800 0.0065880912 0.0026847569 0.0058758636 
   91900 0.0045699316 0.0022682837 0.0044818443 
   92000 0.0047936143 0.0019622661 0.0042841731 
   92100 0.0060913947 0.0020531911 0.0050037105 
   92200  0.003788817 0.0022846202 0.0041198284 
   92300 0.0039215619 0.0024077401 0.0043072467 
   92400 0.0063719349 0.0025028406 0.0055892465 
   92500 0.0068241269 0.0022859814 0.0055914179 
   92600 0.0059627997 0.0031333748 0.0060216059 
   92700 0.0071563466 0.0030674619 0.0065338173 
   92800 0.0059021023 0.0027951179 0.0056539487 
   92900 0.0051112094 0.0028392405 0.0053149825 
   93000 0.0065788663 0.0024620122 0.0056486506 
   93100 0.0047442752 0.0023405402 0.0046385485 
   93200 0.0033306794 0.0025262085 0.0041395063 
   93300 0.0033356975 0.0023370507 0.0039527792 
   93400 0.0036687309 0.0023399835  0.004117025 
   93500 0.0039519835 0.0025981897 0.0045124317 
   93600 0.0064796861 0.0023220379 0.0054606359 
   93700 0.0057860525 0.0025712172 0.0053738364 
   93800  0.004145833 0.0028593592  0.004867497 
   93900 0.0054276245  0.002451703 0.0050807086 
   94000 0.0038435075 0.0024987298 0.0043604287 
   94100 0.0026530422 0.0025205596 0.0038056269 
   94200 0.0052076848 0.0025531433 0.0050756156 
   94300 0.0039271428 0.0031718837 0.0050740935 
   94400 0.0047542848 0.0031755974 0.0054784541 
   94500 0.0058242123 0.0030819381 0.0059030409 
   94600 0.0067904903 0.0027421552  0.006031299 
   94700 0.0054445629 0.0028169268 0.0054541369 
   94800  0.005202011 0.0027846427 0.0053043667 
   94900 0.0047864756 0.0028602221 0.0051786712 
   95000 0.0041125093 0.0031058632 0.0050978599 
   95100 0.0043444544 0.0032497618 0.0053541069 
   95200 0.0046908385 0.0028104694 0.0050825943 
   95300 0.0063950586 0.0026047536 0.0057023601 
   95400 0.0050751771 0.0028064041  0.005264693 
   95500 0.0042060748 0.0026176414 0.0046549589 
   95600 0.0073429101 0.0023047888 0.0058615108 
   95700 0.0057090755 0.0026785655 0.0054438989 
   95800 0.0050003589 0.0034874811   0.00590953 
   95900 0.0053630857 0.0036692875 0.0062670321 
   96000 0.0067289573 0.0031128659 0.0063722045 
   96100 0.0047438978 0.0029937075  0.005291533 
   96200 0.0032767618 0.0027633429 0.0043505244 
   96300 0.0049412199 0.0025518834 0.0049452868 
   96400 0.0039434348 0.0026205335 0.0045306347 
   96500 0.0045012945 0.0027668596 0.0049471741 
   96600 0.0055193416 0.0026236503 0.0052970814 
   96700 0.0048488666 0.0024587328 0.0048074025 
   96800 0.0070507837 0.0021488635 0.0055640869 
   96900 0.0059576184  0.002365639 0.0052513605 
   97000 0.0048163158 0.0024171499 0.0047500528 
   97100  0.004609273  0.002486828 0.0047194446 
   97200  0.005355325 0.0026110116 0.0052049972 
   97300 0.0051524208 0.0030513161 0.0055470199 
   97400 0.0053528997 0.0029490805 0.0055418913 
   97500 0.0046764696 0.0026816657 0.0049468307 
   97600 0.0042363456 0.0026549875 0.0047069674 
   97700 0.0061543596 0.0024623579 0.0054433758 
   97800 0.0038961758 0.0025159692 0.0044031793 
   97900 0.0055630047 0.0027134284 0.0054080088 
   98000 0.0060578242  0.002281331 0.0052155896 
   98100 0.0041322299 0.0024019238 0.0044034727 
   98200 0.0044508887  0.002843031 0.0049989302 
   98300 0.0054571148 0.0031178835 0.0057611735 
   98400 0.0052876632 0.0030649802 0.0056261921 
   98500 0.0050804155 0.0026025337   0.00506336 
   98600  0.004365256 0.0024323942 0.0045468151 
   98700 0.0047748727 0.0029188077 0.0052316366 
   98800 0.0035786356 0.0032237543 0.0049571559 
   98900 0.0049154967 0.0031260062 0.0055069499 
   99000 0.0052503578 0.0026803515 0.0052234935 
   99100 0.0052292752 0.0023153955 0.0048483256 
   99200 0.0038726343 0.0026328171 0.0045086244 
   99300 0.0048004439  0.002610089 0.0049353039 
   99400 0.0055549458 0.0025426434 0.0052333203 
   99500 0.0053177219 0.0024481933 0.0050239648 
   99600 0.0037825824 0.0025128986 0.0043450869 
   99700 0.0046231455 0.0022239092 0.0044632453 
   99800  0.006566985 0.0023292437 0.0055101271 
   99900 0.0026457253 0.0029091929 0.0041907161 
  100000 0.0057538597 0.0030665965 0.0058536223 
  100100 0.0055885046 0.0026283827 0.0053353146 
  100200   0.00574283 0.0025974587  0.005379142 
  100300 0.0056817543 0.0025684955 0.0053205952 
  100400 0.0057280347 0.0029100412  0.005684558 
  100500 0.0043799963 0.0030741604  0.005195721 
  100600 0.0059177865  0.003545405 0.0064118329 
  100700 0.0047697536 0.0036786239 0.0059889733 
  100800 0.0068709787 0.0035042001 0.0068323304 
  100900 0.0049744979 0.0031719507 0.0055814732 
  101000 0.0051534917 0.0027720775    0.0052683 
  101100 0.0050279691 0.0024193275 0.0048547501 
  101200 0.0054082183 0.0023677964 0.0049874022 
  101300 0.0051214615 0.0024398718 0.0049205797 
  101400 0.0055270466 0.0029263647 0.0056035279 
  101500 0.0051804803 0.0033919408 0.0059012359 
  101600 0.0055280211 0.0035771292 0.0062547644 
  101700 0.0054649603 0.0029085979 0.0055556881 
  101800  0.005062878 0.0025968116 0.0050491431 
  101900 0.0059309863 0.0029461308 0.0058189522 
  102000 0.0064802829 0.0035529319 0.0066918189 
  102100 0.0055675296 0.0031150416 0.0058118137 
  102200 0.0042296277 0.0025430479 0.0045917738 
  102300 0.0050360617 0.0027947974 0.0052341398 
  102400 0.0052714672 0.0029824954 0.0055358624 
  102500 0.0076156726 0.0027638382 0.0064526796 
  102600 0.0049992203 0.0027346732 0.0051561706 
  102700  0.005147186 0.0023582321 0.0048514003 
  102800 0.0049217424 0.0023131595 0.0046971284 
  102900 0.0048358403 0.0022947312 0.0046370914 
  103000 0.0050937455 0.0023561207 0.0048234037 
  103100 0.0047809507 0.0027852436 0.0051010166 
  103200 0.0034631043 0.0034896336 0.0051670748 
  103300 0.0051490876 0.0030992638 0.0055933532 
  103400 0.0078584311 0.0029108602 0.0067172877 
  103500 0.0051065961 0.0032684562 0.0057419636 
  103600 0.0031944619 0.0032826008 0.0048299183 
  103700 0.0058111111 0.0027835516 0.0055983085 
  103800 0.0059164078 0.0022226431 0.0050884031 
  103900  0.005427814 0.0019616006  0.004590698 
  104000 0.0051289921 0.0018266609 0.0043110165 
  104100 0.0051663747 0.0020025842  0.004505047 
  104200 0.0049611941 0.0022511681 0.0046542464 
  104300  0.005334082 0.0020760985 0.0046597945 
  104400 0.0052628702 0.0019087937 0.0044579965 
  104500 0.0040460489  0.002159625 0.0041194299 
  104600 0.0044683874 0.0017555321 0.0039199073 
  104700 0.0039439008 0.0018644224 0.0037747493 
  104800 0.0046147048  0.001575247 0.0038104946 
  104900 0.0038810377 0.0017184131 0.0035982907 
  105000 0.0047424716 0.0019024078 0.0041995424 
  105100 0.0046327987 0.0022449366 0.0044889484 
  105200 0.0054666906 0.0019476061 0.0045955344 
  105300 0.0063015263 0.0018536221 0.0049059239 
  105400 0.0043359058 0.0026142605 0.0047144649 
  105500 0.0047890184 0.0028641035 0.0051837844 
  105600 0.0059287859 0.0024929195 0.0053646752 
  105700 0.0054632017  0.001903063 0.0045493013 
  105800 0.0039576803 0.0022922638 0.0042092652 
  105900 0.0056306066 0.0024376205 0.0051649456 
  106000 0.0046350296 0.0025385342 0.0047836267 
  106100 0.0054053022 0.0026496172 0.0052678105 
  106200 0.0052186294 0.0026711515 0.0051989251 
  106300 0.0043660522 0.0023634121 0.0044782186 
  106400 0.0038453193 0.0019428694 0.0038054459 
  106500 0.0058817513 0.0015360383 0.0043850116 
  106600 0.0056480118 0.0016151487 0.0043509044 
  106700  0.006254834 0.0021471274 0.0051768126 
  106800 0.0045488227 0.0023857659  0.004589102 
  106900 0.0059818352 0.0022591632 0.0051566146 
  107000 0.0057329579 0.0025462485   0.00532315 
  107100 0.0047694511 0.0027154609 0.0050256637 
  107200 0.0054784789 0.0027861547 0.0054397929 
  107300 0.0050778752 0.0032105963 0.0056701921 
  107400 0.0061357197 0.0037268476 0.0066988368 
  107500 0.0066625443 0.0033047023 0.0065318722 
  107600 0.0058265695 0.0024713645 0.0052936091 
  107700  0.004141571 0.0022059184 0.0042119919 
  107800 0.0053716473 0.0022677705 0.0048696621 
  107900 0.0055256359 0.0023866324 0.0050631123 
  108000 0.0051721282 0.0026498851 0.0051551348 
  108100 0.0040994457 0.0030388383 0.0050245073 
  108200 0.0054505325 0.0028459778 0.0054860794 
  108300 0.0052394139 0.0026848197 0.0052226608 
  108400 0.0058371964 0.0022206774 0.0050480694 
  108500 0.0048746795 0.0023014355 0.0046626084 
  108600  0.005546553 0.0021500278 0.0048366394 
  108700 0.0059665676  0.002172666 0.0050627222 
  108800 0.0050532034  0.002005335 0.0044529804 
  108900  0.005600209 0.0018020543 0.0045146555 
  109000 0.0061287331 0.0020964855 0.0050650906 
  109100 0.0061819621 0.0022788695 0.0052732574 
  109200 0.0051921713 0.0021402065 0.0046551645 
  109300 0.0044116411 0.0023416385 0.0044785272 
  109400 0.0060450131 0.0023239485 0.0052520017 
  109500 0.0048033762  0.002613043 0.0049396783 
  109600 0.0043422228 0.0026910178  0.004794282 
  109700 0.0068289359 0.0023766229 0.0056843887 
  109800 0.0044194064 0.0023550875 0.0044957374 
  109900 0.0050733111 0.0026707863 0.0051281714 
  110000 0.0051762792 0.0028117485 0.0053190087 
  110100 0.0062752108 0.0029843593 0.0060239145 
  110200 0.0047497128 0.0030652038 0.0053658459 
  110300 0.0053286164 0.0030594136 0.0056404621 
  110400 0.0054081344 0.0029549066 0.0055744717 
  110500 0.0056644571 0.0030129631 0.0057566845 
  110600 0.0044594681 0.0027526469 0.0049127017 
  110700 0.0045329398 0.0023607067 0.0045563494 
  110800  0.004482113 0.0022005382 0.0043715617 
  110900 0.0040316036 0.0024880503 0.0044408583 
  111000 0.0042991418 0.0021761813 0.0042585781 
  111100  0.004144609 0.0018143662 0.0038219112 
  111200  0.003779627  0.001942536 0.0037732928 
  111300  0.004530957 0.0020280384 0.0042227207 
  111400 0.0044770052 0.0022629137 0.0044314631 
  111500 0.0051490233 0.0026087962 0.0051028543 
  111600 0.0055367339 0.0025133268 0.0051951822 
  111700  0.006249427 0.0027358202 0.0057628864 
  111800 0.0053683937 0.0024673343   0.00506765 
  111900 0.0042892151 0.0021480952 0.0042256837 
  112000 0.0062351238 0.0020820382 0.0051021764 
  112100 0.0047928456 0.0024115806 0.0047331152 
  112200 0.0064775858  0.002521178 0.0056587586 
  112300 0.0046262277 0.0025097353 0.0047505644 
  112400 0.0065752175 0.0023511736 0.0055360445 
  112500 0.0063562825 0.0024222363 0.0055010606 
  112600 0.0055425957 0.0025400506 0.0052247454 
  112700 0.0038282451 0.0023480094 0.0042023157 
  112800  0.004114568 0.0021338045 0.0041267984 
  112900 0.0041622113 0.0020011073 0.0040171784 
  113000 0.0046275332  0.002149509 0.0043909704 
  113100 0.0061060529 0.0024156564 0.0053732758 
  113200 0.0052828015 0.0027185615 0.0052774185 
  113300 0.0042413258 0.0026016971 0.0046560893 
  113400 0.0044035564   0.00254778 0.0046807526 
  113500  0.004154659 0.0023291991 0.0043416121 
  113600 0.0058042786 0.0017522197 0.0045636671 
  113700 0.0052060817 0.0019583612 0.0044800571 
  113800 0.0073173129 0.0022915581 0.0058358815 
  113900 0.0044573784 0.0025381412 0.0046971839 
  114000 0.0035867204 0.0026559599 0.0043932776 
  114100 0.0069394294 0.0024263297 0.0057876159 
  114200 0.0040719487 0.0024228971 0.0043952472 
  114300 0.0057612389 0.0025178648 0.0053084649 
  114400 0.0049793347  0.002661705 0.0050735702 
  114500  0.004800478  0.002787955 0.0051131866 
  114600 0.0056356243 0.0025631356 0.0052928911 
  114700 0.0068425968 0.0024473295 0.0057617123 
  114800 0.0047088732 0.0027682595   0.00504912 
  114900 0.0053254698 0.0030603896  0.005639914 
  115000 0.0064774829  0.003283149 0.0064206798 
  115100 0.0070408139  0.002683641 0.0060940352 
  115200 0.0050311184 0.0033826588 0.0058196068 
  115300 0.0056968659 0.0030352276  0.005794647 
  115400 0.0054372515 0.0035307398 0.0061644084 
  115500 0.0065249412 0.0035984962 0.0067590146 
  115600 0.0078364354 0.0036096967   0.00740547 
  115700 0.0056756993 0.0037328146 0.0064819815 
  115800 0.0050812504 0.0036743709 0.0061356015 
  115900   0.00394247 0.0031987707 0.0051084047 
  116000  0.004407109 0.0027956292 0.0049303227 
  116100 0.0056393823  0.002409213 0.0051407888 
  116200 0.0038821805 0.0023418681 0.0042222992 
  116300 0.0044868373 0.0021294834 0.0043027952 
  116400 0.0058641989 0.0019074375 0.0047479089 
  116500 0.0034969414 0.0023150666 0.0040088976 
  116600  0.004492434 0.0023764356 0.0045524583 
  116700 0.0054142128 0.0023411873 0.0049636966 
  116800 0.0049882935 0.0028467707 0.0052629753 
  116900 0.0044418507 0.0029996956  0.005151217 
  117000 0.0050539142 0.0033239516 0.0057719413 
  117100  0.006495641 0.0034493621 0.0065956882 
  117200 0.0049049147 0.0032248143 0.0056006323 
  117300  0.005350474  0.002509032 0.0051006679 
  117400 0.0050420839 0.0023686902 0.0048109496 
  117500   0.00488975 0.0025426683 0.0049111409 
  117600 0.0038928403 0.0024675597 0.0043531542 
  117700 0.0034980912 0.0026710153 0.0043654033 
  117800 0.0056603888 0.0022737989 0.0050155498 
  117900 0.0045604221 0.0022413161 0.0044502706 
  118000 0.0040988049  0.001861718 0.0038470766 
  118100 0.0055293028 0.0018805772 0.0045588332 
  118200 0.0044948654 0.0022351019 0.0044123024 
  118300 0.0056302239  0.002769398 0.0054965378 
  118400 0.0054586066 0.0029278682 0.0055718808 
  118500 0.0053688508  0.002529904 0.0051304411 
  118600 0.0064809316 0.0021533911 0.0052925924 
  118700 0.0053593387  0.002207432 0.0048033616 
  118800 0.0063076256 0.0020550198 0.0051102759 
  118900 0.0059259044 0.0025720177 0.0054423776 
  119000 0.0051849925 0.0026642975 0.0051757783 
  119100  0.005372672 0.0026360762 0.0052384642 
  119200 0.0049771005 0.0023459243 0.0047567074 
  119300 0.0059072295  0.002092999 0.0049543133 
  119400 0.0069277789  0.001989501 0.0053451439 
  119500  0.004258062 0.0017326163 0.0037951151 
  119600 0.0041059312 0.0016249073 0.0036137177 
  119700 0.0034456946 0.0017364074 0.0034054157 
  119800  0.006148442 0.0018403209 0.0048184725 
  119900 0.0051277312 0.0016328657 0.0041166105 
  120000 0.0045245203 0.0013885393 0.0035801038 
  120100 0.0046607325 0.0015937693 0.0038513116 
  120200 0.0060559292 0.0014988586 0.0044321993 
  120300 0.0053151164 0.0021935399 0.0047680495 
  120400 0.0044698045 0.0018065371 0.0039715986 
  120500 0.0055274086  0.001612368 0.0042897066 
  120600  0.003943908 0.0019814866 0.0038918171 
  120700 0.0052504942 0.0017913909  0.004334599 
  120800 0.0046595174 0.0019386269 0.0041955807 
  120900 0.0041097553 0.0018604085 0.0038510712 
  121000 0.0049126919 0.0012045867 0.0035841719 
  121100 0.0046355383 0.0011342324 0.0033795712 
  121200 0.0046468931 0.0014796344 0.0037304732 
  121300 0.0057349611 0.0022679849 0.0050458567 
  121400 0.0040523417 0.0022122748 0.0041751278 
  121500  0.006172069 0.0022757574 0.0052653533 
  121600 0.0045336537 0.0025396511 0.0047356397 
  121700 0.0048662178 0.0022401242 0.0045971985 
  121800 0.0054236669 0.0025113944 0.0051384831 
  121900 0.0038195879  0.002471669 0.0043217819 
  122000 0.0048146446 0.0021461882 0.0044782817 
  122100 0.0038636702  0.001815971 0.0036874362 
  122200 0.0044978304 0.0014977433 0.0036763799 
  122300 0.0054086389 0.0015117965  0.004131606 
  122400 0.0061960532 0.0013484745 0.0043496878 
  122500 0.0050564122 0.0017083168 0.0041575165 
  122600 0.0052239273 0.0020561106 0.0045864504 
  122700 0.0036542847 0.0023264612 0.0040965053 
  122800 0.0044908353 0.0022344178 0.0044096661 
  122900 0.0049952921 0.0018799994  0.004299594 
  123000 0.0047444076 0.0017063079 0.0040043804 
  123100  0.004862223  0.001801608 0.0041567473 
  123200 0.0057492606 0.0018132477 0.0045980458 
  123300 0.0048022571 0.0017459686 0.0040720619 
  123400 0.0040000961 0.0017074849 0.0036450314 
  123500 0.0051579069 0.0020546818 0.0045530429 
  123600 0.0049878158 0.0023594706 0.0047754438 
  123700  0.005091171 0.0022305227 0.0046965586 
  123800 0.0049390629 0.0019579365 0.0043502951 
  123900 0.0042309735  0.002026541 0.0040759188 
  124000 0.0065092723 0.0019260582  0.005078987 
  124100 0.0043011216 0.0020167794 0.0041001352 
  124200 0.0053425197 0.0020850849 0.0046728679 
  124300 0.0046430861 0.0021123924 0.0043613873 
  124400 0.0042901344  0.002220801 0.0042988348 
  124500 0.0047729498 0.0022056863 0.0045175839 
  124600 0.0050078505 0.0023413823 0.0047670599 
  124700 0.0046376962  0.002246244  0.004492628 
  124800 0.0036938734 0.0020925895 0.0038818094 
  124900 0.0064449118 0.0022354655 0.0053572196 
  125000 0.0043768313 0.0022257889 0.0043458165 
  125100 0.0049120096 0.0022261632 0.0046054179 
  125200 0.0050757499 0.0021578469 0.0046164133 
  125300 0.0061341695 0.0019532304 0.0049244687 
  125400 0.0057329921 0.0021313361 0.0049082542 
  125500  0.005128486 0.0024535677 0.0049376782 
  125600 0.0063604852 0.0024308235 0.0055116835 
  125700  0.006104099 0.0025887201 0.0055453931 
  125800 0.0066678958 0.0027197056 0.0059494677 
  125900 0.0048743207 0.0029370688 0.0052980679 
  126000  0.004143027 0.0032167694 0.0052235481 
  126100 0.0035427875 0.0033999219 0.0051159595 
  126200 0.0046530956 0.0028434555 0.0050972987 
  126300 0.0058923046 0.0028686494 0.0057227344 
  126400 0.0055686908 0.0028751884  0.005572523 
  126500 0.0051768745 0.0024287583 0.0049363069 
  126600 0.0044757881 0.0022378449 0.0044058048 
  126700 0.0053634597 0.0022427642   0.00484069 
  126800 0.0046568417 0.0024614343  0.004717092 
  126900 0.0052757155 0.0027856348 0.0053410595 
  127000 0.0040766306 0.0030234499 0.0049980679 
  127100 0.0047760935 0.0025922497   0.00490567 
  127200 0.0055560097 0.0018528794 0.0045440716 
  127300 0.0050131418 0.0018774575 0.0043056981 
  127400 0.0051764479 0.0022648952 0.0047722371 
  127500 0.0071569125 0.0020447852 0.0055114147 
  127600 0.0055955837 0.0023348947 0.0050452555 
  127700  0.004824905 0.0022762439 0.0046133072 
  127800 0.0033318999 0.0021662595 0.0037801485 
  127900 0.0058392894 0.0016767643 0.0045051701 
  128000 0.0059604714 0.0017852204 0.0046723237 
  128100 0.0041749782 0.0019374521 0.0039597072 
  128200 0.0049931782 0.0017692921 0.0041878628 
  128300 0.0053453208 0.0014609511 0.0040500908 
  128400 0.0047282711  0.001515355 0.0038056113 
  128500 0.0052318946 0.0018450532 0.0043792521 
  128600 0.0048313757 0.0020385713 0.0043787689 
  128700 0.0053122186 0.0023230819 0.0048961878 
  128800  0.006004609  0.001978988 0.0048874705 
  128900 0.0047878934  0.002188619 0.0045077549 
  129000  0.004422785  0.002380566 0.0045228524 
  129100 0.0049711553 0.0026504517 0.0050583551 
  129200 0.0054092898 0.0024867883 0.0051069131 
  129300 0.0061164653 0.0024884151  0.005451078 
  129400 0.0045583576 0.0024770094 0.0046849639 
  129500 0.0054088901 0.0026112471 0.0052311783 
  129600 0.0053809393  0.002574752 0.0051811445 
  129700 0.0044488151 0.0029730526 0.0051279474 
  129800 0.0041626526 0.0027717479 0.0047880327 
  129900 0.0080027717 0.0022850244  0.006161367 
  130000 0.0057221447 0.0026952939 0.0054669578 
  130100  0.004717927 0.0026793909 0.0049646368 
  130200 0.0031873975  0.002222988 0.0037668837 
  130300 0.0047157491 0.0017926122 0.0040768031 
  130400 0.0046733601 0.0018743204 0.0041379792 
  130500 0.0041217007 0.0023623547 0.0043588034 
  130600 0.0060852593 0.0020664243 0.0050139718 
  130700 0.0045319091 0.0025763961 0.0047715396 
  130800 0.0051935026 0.0025257898 0.0050413926 
  130900 0.0044443467 0.0026379842 0.0047907147 
  131000 0.0050517985 0.0026263943 0.0050733592 
  131100 0.0045710926 0.0024262561  0.004640379 
  131200 0.0043050799 0.0021272767 0.0042125497 
  131300 0.0044938105  0.001745432 0.0039221214 
  131400 0.0033152958 0.0019141396  0.003519986 
  131500 0.0051359333 0.0015522479 0.0040399656 
  131600 0.0042209689 0.0015649058 0.0036094376 
  131700 0.0052481963 0.0024585902 0.0050006853 
  131800 0.0039025819  0.002821818 0.0047121311 
  131900 0.0049676332 0.0025250589 0.0049312563 
  132000 0.0050510037 0.0024125723 0.0048591522 
  132100 0.0055672006 0.0023489429 0.0050455557 
  132200 0.0056713871  0.002462855 0.0052099332 
  132300  0.005478843 0.0025136007 0.0051674153 
  132400 0.0044048274 0.0021869875 0.0043205757 
  132500 0.0049867915 0.0020984579  0.004513935 
  132600  0.004024625 0.0020393683  0.003988796 
  132700 0.0044065925 0.0017365923 0.0038710355 
  132800 0.0058693781 0.0019272322 0.0047702122 
  132900 0.0053210984 0.0021082627 0.0046856697 
  133000 0.0037898179  0.002204852  0.004040545 
  133100  0.004559618 0.0019429701  0.004151535 
  133200 0.0051021803 0.0020669247 0.0045382932 
  133300 0.0057015684 0.0021916915 0.0049533887 
  133400  0.007544782 0.0033857192  0.007040223 
  133500 0.0052383172    0.0036349 0.0061722099 
  133600 0.0052588646 0.0030412238 0.0055884863 
  133700 0.0050912238 0.0029267264 0.0053927879 
  133800 0.0052815445 0.0030546471 0.0056128952 
  133900 0.0068248842 0.0025371218 0.0058429251 
  134000 0.0045422922 0.0020964201 0.0042965929 
  134100 0.0052355922 0.0024160199 0.0049520098 
  134200 0.0045798996 0.0026471084 0.0048654973 
  134300 0.0055383039 0.0028984145 0.0055810304 
  134400 0.0046099859 0.0030495322 0.0052824941 
  134500 0.0062189023 0.0024576064 0.0054698872 
  134600 0.0055989266 0.0021969686 0.0049089487 
  134700 0.0058006317 0.0022837908 0.0050934717 
  134800 0.0049281049 0.0025995906 0.0049866414 
  134900 0.0061440888 0.0030846344 0.0060606774 
  135000 0.0038136409 0.0033879615 0.0052351938 
  135100 0.0043823561 0.0032806193  0.005403323 
  135200 0.0053344741  0.003331572  0.005915458 
  135300 0.0047718764 0.0037560655 0.0060674431 
  135400 0.0051747441 0.0036986083  0.006205125 
  135500  0.005763744 0.0026584908 0.0054503043 
  135600 0.0053133953 0.0024482089 0.0050218847 
  135700 0.0035946987 0.0022246977 0.0039658799 
  135800 0.0040164725 0.0024901755 0.0044356544 
  135900 0.0035548208 0.0026142493 0.0043361156 
  136000 0.0054962519 0.0026877404 0.0053499874 
  136100 0.0038227792 0.0026262301 0.0044778888 
  136200 0.0056727601 0.0022069137 0.0049546568 
  136300 0.0047254307 0.0016613569 0.0039502374 
  136400 0.0049441869 0.0017718125  0.004166653 
  136500 0.0058043907 0.0017166527 0.0045281545 
  136600 0.0051366048 0.0017668956 0.0042549385 
  136700 0.0038984186  0.002177119 0.0040654155 
  136800 0.0060214057  0.002356949 0.0052735674 
  136900 0.0051998741 0.0021443718 0.0046630608 
  137000 0.0061037004 0.0020815226 0.0050380025 
  137100 0.0049568139 0.0023007734 0.0047017302 
  137200 0.0081534288 0.0024798204 0.0064291374 
  137300 0.0056034301  0.002568464 0.0052826255 
  137400 0.0060309993 0.0025477272 0.0054689925 
  137500 0.0045888341 0.0024036307 0.0046263472 
  137600 0.0054127292 0.0022845253 0.0049063161 
  137700 0.0043745925 0.0019487095 0.0040676527 
  137800 0.0050303383 0.0017546949 0.0041912651 
  137900 0.0050060407 0.0019460004 0.0043708014 
  138000 0.0048714937 0.0021169592 0.0044765889 
  138100 0.0049693349 0.0019677479 0.0043747695 
  138200 0.0060771252 0.0017896694 0.0047332769 
  138300 0.0051701409 0.0025770906 0.0050813777 
  138400 0.0055732251 0.0029374779 0.0056370088 
  138500 0.0045614366 0.0031318303 0.0053412762 
  138600 0.0046692755 0.0031315939 0.0053932742 
  138700 0.0050160338  0.002535646 0.0049652873 
  138800 0.0040313524 0.0023948157  0.004347502 
  138900 0.0056299748 0.0018927975 0.0046198165 
  139000 0.0046239102  0.002081074 0.0043207805 
  139100 0.0053991494 0.0026595738 0.0052747868 
  139200 0.0043194263 0.0027376691 0.0048298912 
  139300 0.0059731369 0.0023638827 0.0052571209 
  139400 0.0052578337 0.0024779369 0.0050247001 
  139500 0.0053499386 0.0028959374 0.0054873139 
  139600  0.005815149 0.0031170639 0.0059337767 
  139700 0.0038737253  0.003399222 0.0052755577 
  139800 0.0046823903 0.0029334817 0.0052015145 
  139900 0.0056564388 0.0027692109 0.0055090485 
  140000 0.0048872894 0.0030170171 0.0053842979 
  140100 0.0048252661 0.0026601136 0.0049973518 
  140200 0.0045548607 0.0023760221 0.0045822827 
  140300 0.0040753875 0.0023967616 0.0043707775 
  140400 0.0052965505 0.0026573636 0.0052228803 
  140500 0.0044795523  0.002731043 0.0049008262 
  140600 0.0049062455 0.0023364143 0.0047128769 
  140700 0.0041859817 0.0025603376 0.0045879225 
  140800 0.0044895603 0.0024996979 0.0046743286 
  140900 0.0043752071 0.0022424636 0.0043617045 
  141000 0.0039534516 0.0024295831 0.0043445362 
  141100 0.0045344767 0.0021718862 0.0043682734 
  141200 0.0057613957 0.0020391028 0.0048297788 
  141300 0.0053076956 0.0022904303 0.0048613454 
  141400 0.0075842663 0.0022076485 0.0058812775 
  141500 0.0041158459  0.002403625 0.0043972379 
  141600 0.0057546251 0.0022843263 0.0050717229 
  141700 0.0052024874 0.0024699991 0.0049899539 
  141800 0.0058727868   0.00331726 0.0061618911 
  141900 0.0040412091  0.003912519 0.0058699797 
  142000  0.006666556  0.004169474  0.007398587 
  142100 0.0054218706 0.0035865246 0.0062127431 
  142200  0.005348602  0.003055907 0.0056466361 
  142300 0.0054960801 0.0029243159 0.0055864797 
  142400 0.0058939315 0.0030596088 0.0059144819 
  142500 0.0055416502 0.0033454031 0.0060296399 
  142600 0.0036831282 0.0029857873 0.0047698026 
  142700 0.0056435322 0.0027645606 0.0054981465 
  142800 0.0044894255 0.0026268824 0.0048014479 
  142900 0.0055176329 0.0028409257 0.0055135292 
  143000 0.0050630964 0.0026008885 0.0050533258 
  143100 0.0051248047 0.0026724486 0.0051547759 
  143200 0.0044259614 0.0029347261 0.0050785511 
  143300 0.0044378744 0.0030953852 0.0052449806 
  143400 0.0039571683 0.0031559984 0.0050727518 
  143500 0.0046658167 0.0025226507 0.0047826556 
  143600 0.0062347908 0.0021612362  0.005181213 
  143700 0.0063035737 0.0019872023 0.0050404958 
  143800  0.005026307 0.0023970423 0.0048316597 
  143900  0.003843593  0.002384756 0.0042464963 
  144000 0.0036683415 0.0024792735 0.0042561264 
  144100 0.0054228972 0.0021705553 0.0047972712 
  144200 0.0048195364 0.0023785288 0.0047129918 
  144300 0.0055475949 0.0026346344 0.0053217507 
  144400 0.0036817643 0.0028227372 0.0046060918 
  144500 0.0043240578  0.002571394 0.0046658595 
  144600 0.0058635986 0.0023335057 0.0051736862 
  144700 0.0049359532 0.0024964373 0.0048872896 
  144800 0.0051385803 0.0025796626 0.0050686625 
  144900 0.0057610995 0.0022427981 0.0050333307 
  145000 0.0046622114 0.0017352944 0.0039935531 
  145100 0.0039315078 0.0021763381 0.0040806622 
  145200 0.0050590758 0.0023937491 0.0048442389 
  145300  0.004583073 0.0024769278 0.0046968538 
  145400 0.0047124258 0.0024886657 0.0047712469 
  145500 0.0040713812 0.0022559568 0.0042280321 
  145600 0.0065534573 0.0018348545 0.0050091853 
  145700 0.0041226047  0.002078797 0.0040756837 
  145800 0.0055149805  0.001882129 0.0045534476 
  145900 0.0049372025 0.0020566876 0.0044481451 
  146000 0.0054970944 0.0021735361 0.0048361912 
  146100 0.0050760581 0.0023537986 0.0048125143 
  146200 0.0066437479 0.0021536589 0.0053717243 
  146300 0.0056010321 0.0023607207 0.0050737206 
  146400 0.0048031845 0.0023212643 0.0046478068 
  146500 0.0056313398 0.0020978095 0.0048254897 
  146600 0.0043140505 0.0022043703 0.0042939885 
  146700 0.0055408021 0.0019649652 0.0046487913 
  146800 0.0059432066 0.0022817769 0.0051605176 
  146900 0.0048662332 0.0028251035 0.0051821852 
  147000 0.0046833544 0.0031876563 0.0054561561 
  147100 0.0059743497 0.0031570732 0.0060508988 
  147200 0.0055715603 0.0029322964 0.0056310209 
  147300 0.0045046984 0.0026968409 0.0048788041 
  147400 0.0062927652 0.0024755879  0.005523646 
  147500  0.005856722 0.0021735613  0.005010411 
  147600 0.0059805024 0.0019441944 0.0048410002 
  147700 0.0057687437 0.0020421868  0.004836422 
  147800 0.0056761586 0.0028486561 0.0055980454 
  147900 0.0043575528 0.0033363833  0.005447073 
  148000  0.006357342 0.0024162627 0.0054956002 
  148100 0.0072500596 0.0016899758 0.0052017234 
  148200  0.005645637  0.002324987 0.0050595924 
  148300 0.0037385959    0.0029046 0.0047154824 
  148400 0.0046044604 0.0023221871 0.0045524726 
  148500 0.0058881234 0.0020811835 0.0049332433 
  148600 0.0045462043 0.0019959089 0.0041979766 
  148700 0.0051867079  0.002189259 0.0047015706 
  148800  0.004358914 0.0023741529 0.0044855018 
  148900 0.0053522286 0.0024297686 0.0050222544 
  149000 0.0056646266 0.0022268804 0.0049706839 
  149100 0.0042608394 0.0024786102 0.0045424542 
  149200 0.0060742723 0.0023699411 0.0053121667 
  149300 0.0053851363 0.0018704802 0.0044789056 
  149400  0.005200422 0.0018669699 0.0043859243 
  149500 0.0032625204 0.0020969965 0.0036772798 
  149600  0.003463537 0.0021732358 0.0038508866 
  149700  0.005222501 0.0021539727 0.0046836217 
  149800 0.0054500519 0.0022611303 0.0049009992 
  149900 0.0058718464 0.0025156201 0.0053597957 
  150000 0.0048551499 0.0024163581 0.0047680714 
  150100 0.0047283389 0.0027145603 0.0050048494 
  150200  0.004446494 0.0021325496 0.0042863202 
  150300 0.0040485795  0.001878854 0.0038398847 
  150400 0.0053768658  0.001899512 0.0045039314 
  150500 0.0044008754 0.0022720709 0.0044037449 
  150600 0.0042738904 0.0025345861 0.0046047518 
  150700 0.0047898024  0.002518343 0.0048384035 
  150800 0.0040421291 0.0020917974 0.0040497037 
  150900 0.0041111235 0.0016951708 0.0036864963 
  151000 0.0063096738  0.002036183 0.0050924312 
  151100  0.004243389  0.002078316 0.0041337076 
  151200 0.0052996983  0.001499176 0.0040662173 
  151300 0.0043580767  0.001568224 0.0036791673 
  151400 0.0038474093 0.0019855431  0.003849132 
  151500 0.0051015753 0.0021921408 0.0046632164 
  151600 0.0054237012 0.0022274749 0.0048545802 
  151700 0.0062791165 0.0025413914 0.0055828385 
  151800 0.0049017154 0.0029581921 0.0053324605 
  151900 0.0052185148  0.002447932 0.0049756502 
  152000 0.0054011705 0.0021555372 0.0047717292 
  152100 0.0038797465 0.0023871429 0.0042663951 
  152200  0.006800489 0.0022351997 0.0055291866 
  152300 0.0060401447  0.002497582 0.0054232771 
  152400 0.0044523496 0.0031549441 0.0053115509 
  152500 0.0055109425 0.0034041222  0.006073485 
  152600  0.005721128 0.0030937261 0.0058648975 
  152700 0.0049716008 0.0027709667 0.0051790859 
  152800  0.004788441   0.00271138 0.0050307811 
  152900 0.0040230084  0.002791418 0.0047400627 
  153000 0.0039809204 0.0024122309 0.0043404893 
  153100 0.0044674184 0.0022235345 0.0043874403 
  153200 0.0053722515 0.0026134376 0.0052156219 
  153300 0.0047120458 0.0024195208  0.004701918 
  153400 0.0051148837 0.0020787832  0.004556305 
  153500 0.0052477463 0.0023330993 0.0048749764 
  153600 0.0046199105 0.0023469496 0.0045847187 
  153700 0.0048978659 0.0019104458 0.0042828497 
  153800 0.0051735883 0.0021971522 0.0047031091 
  153900 0.0053906724 0.0024105298 0.0050216367 
  154000  0.004881511 0.0025317281   0.00489621 
  154100 0.0052979618 0.0024766094 0.0050428096 
  154200 0.0062855105 0.0020088743 0.0050534184 
  154300  0.005662381 0.0017886908 0.0045314066 
  154400 0.0046318206 0.0022383718 0.0044819099 
  154500 0.0048134003 0.0025645563  0.004896047 
  154600 0.0052850597 0.0026286113 0.0051885621 
  154700 0.0054776648 0.0028710967 0.0055243406 
  154800 0.0045222973 0.0027518871 0.0049423749 
  154900 0.0051926604 0.0024819349 0.0049971298 
  155000 0.0056608087 0.0023365667 0.0050785209 
  155100 0.0045750668 0.0024149349 0.0046309829 
  155200 0.0056612368 0.0023456216 0.0050877832 
  155300 0.0054493495 0.0023165733  0.004956102 
  155400 0.0053241585  0.002409947 0.0049888362 
  155500 0.0046112394 0.0020575234 0.0042910925 
  155600 0.0050839049 0.0022826881 0.0047452045 
  155700  0.004612715 0.0025242107 0.0047584945 
  155800 0.0049450182 0.0023953989 0.0047906421 
  155900 0.0058281079 0.0021965158 0.0050195055 
  156000 0.0048440225 0.0021698393 0.0045161627 
  156100 0.0042266025 0.0021867022 0.0042339627 
  156200 0.0050162883  0.001966672 0.0043964367 
  156300 0.0050205003 0.0023829041 0.0048147089 
  156400 0.0058577243   0.00235183 0.0051891652 
  156500 0.0048026919 0.0026148898 0.0049411937 
  156600 0.0058228773  0.002722856 0.0055433122 
  156700 0.0060057045 0.0030794154 0.0059884285 
  156800 0.0043860921 0.0035184719 0.0056429853 
  156900  0.004825495 0.0034332835 0.0057706326 
  157000 0.0066717926 0.0030344797 0.0062661293 
  157100 0.0048281631 0.0029293989 0.0052680404 
  157200 0.0039592046 0.0030495908 0.0049673305 
  157300 0.0045711244 0.0034051268 0.0056192652 
  157400 0.0055171132 0.0032533302 0.0059256819 
  157500 0.0066637187 0.0030079373  0.006235676 
  157600 0.0061618601 0.0025803685 0.0055650195 
  157700 0.0044467742 0.0023335348 0.0044874411 
  157800 0.0060360007 0.0025978789 0.0055215668 
  157900 0.0049354054   0.00267377  0.005064357 
  158000 0.0057777876 0.0023493389 0.0051479548 
  158100 0.0067990625 0.0020617644 0.0053550603 
  158200 0.0039275021 0.0020277904 0.0039301743 
  158300  0.005339189 0.0024199493  0.005006119 
  158400 0.0044586973 0.0027884627 0.0049481442 
  158500 0.0059895172 0.0028145813 0.0057157537 
  158600 0.0048942676 0.0030653808 0.0054360416 
  158700 0.0035637893 0.0032368235  0.004963034 
  158800 0.0047901409 0.0028498887 0.0051701132 
  158900 0.0048110321 0.0024966895 0.0048270331 
  159000 0.0049768405 0.0024432989  0.004853956 
  159100  0.003679968 0.0023873969 0.0041698814 
  159200  0.004564163 0.0023773837 0.0045881502 
  159300 0.0035078798 0.0026377581 0.0043368874 
  159400 0.0044314181 0.0025897509  0.004736219 
  159500 0.0052075494 0.0023675792  0.004889986 
  159600 0.0069251184 0.0019542143 0.0053085685 
  159700 0.0055006151  0.002189469 0.0048538294 
  159800  0.005351876 0.0025920332 0.0051843482 
  159900 0.0038516085 0.0029687079 0.0048343308 
  160000 0.0059249676  0.002924906 0.0057948122 
[...]
 1460500 0.0042132611  0.002383829 0.0044246273 
 1460600 0.0048705928 0.0025301471 0.0048893405 
 1460700 0.0065473548 0.0024747138 0.0056460888 
 1460800 0.0066939031 0.0029479701 0.0061903294 
 1460900 0.0038683189 0.0032071765 0.0050808935 
 1461000 0.0047684397 0.0029059319 0.0052156449 
 1461100 0.0043270222 0.0023831146  0.004479016 
 1461200 0.0046332131   0.00242626 0.0046704726 
 1461300 0.0049088649 0.0026554712 0.0050332026 
 1461400 0.0059250761  0.003251683 0.0061216417 
 1461500 0.0055357915 0.0037539069 0.0064353059 
 1461600 0.0066123145 0.0036638094 0.0068666493 
 1461700 0.0038099782 0.0033334732 0.0051789314 
 1461800 0.0049278448 0.0032866706 0.0056735954 
 1461900 0.0054122528 0.0030463348 0.0056678948 
 1462000 0.0037878338 0.0029577413 0.0047924733 
 1462100 0.0050315052 0.0031145877  0.005551723 
 1462200  0.006966155 0.0034898392 0.0068640705 
 1462300 0.0062538199 0.0035813038 0.0066104979 
 1462400 0.0058407129 0.0035271305 0.0063562259 
 1462500 0.0052622975 0.0034831989 0.0060321243 
 1462600 0.0063302793  0.002941307 0.0060075361 
 1462700 0.0050163016 0.0028465539  0.005276325 
 1462800  0.005291314 0.0029494997 0.0055124799 
 1462900 0.0044984304 0.0028810789 0.0050600061 
 1463000 0.0041451514 0.0027842788 0.0047920865 
 1463100   0.00627017 0.0025312273 0.0055683408 
 1463200 0.0056856001 0.0028033374    0.0055573 
 1463300  0.004611356 0.0031681588 0.0054017844 
 1463400  0.003627709 0.0030008714 0.0047580429 
 1463500 0.0054392898 0.0027721726 0.0054068285 
 1463600 0.0058717043 0.0025022658 0.0053463726 
 1463700 0.0044304726 0.0026261261 0.0047721363 
 1463800 0.0048071611 0.0026368919 0.0049653606 
 1463900  0.006107823 0.0026045318 0.0055630086 
 1464000 0.0052496525 0.0029218349 0.0054646354 
 1464100 0.0036597795 0.0034524524 0.0052251581 
 1464200 0.0037670126 0.0033565088 0.0051811555 
 1464300 0.0047669739 0.0030884016 0.0053974045 
 1464400 0.0048604141 0.0029846019  0.005338865 
 1464500 0.0050996745 0.0029342447 0.0054043995 
 1464600 0.0042408716  0.002825596 0.0048797682 
 1464700 0.0051915434 0.0025061091  0.005020763 
 1464800 0.0053862344 0.0023151421 0.0049240994 
 1464900 0.0062430443 0.0021977015 0.0052216761 
 1465000 0.0059325948 0.0027552511 0.0056288516 
 1465100 0.0047235502 0.0031074357 0.0053954054 
 1465200  0.005094613 0.0029993567 0.0054670599 
 1465300 0.0046797135 0.0026111237 0.0048778599 
 1465400 0.0051112519 0.0022059224  0.004681685 
 1465500 0.0042857538  0.002224136  0.004300048 
 1465600 0.0055021662 0.0022928138 0.0049579256 
 1465700 0.0053664611 0.0024807012 0.0050800809 
 1465800 0.0062857474  0.002225984 0.0052706429 
 1465900 0.0055018692 0.0025266555 0.0051916234 
 1466000 0.0048879737 0.0025808168 0.0049484291 
 1466100 0.0049563323 0.0025172378 0.0049179612 
 1466200  0.004982852 0.0023361312 0.0047497001 
 1466300 0.0057619778 0.0023780761 0.0051690341 
 1466400 0.0045391908 0.0028975833 0.0050962539 
 1466500  0.004373513 0.0026352766  0.004753697 
 1466600 0.0042923315 0.0022889104 0.0043680085 
 1466700 0.0058820751 0.0025036212 0.0053527513 
 1466800 0.0062543934 0.0026947336 0.0057242054 
 1466900  0.006175955 0.0026109065 0.0056023847 
 1467000 0.0055946413 0.0025323158 0.0052422202 
 1467100 0.0039508705 0.0024665053 0.0043802082 
 1467200 0.0050004218 0.0023143209 0.0047364002 
 1467300 0.0059849487 0.0019356462 0.0048346058 
 1467400 0.0047036343 0.0022103783 0.0044887012 
 1467500 0.0055595388 0.0023622861 0.0050551878 
 1467600  0.003604372 0.0027674281 0.0045132958 
 1467700 0.0045263329 0.0026957851 0.0048882276 
 1467800 0.0053776649 0.0028607716  0.005465578 
 1467900 0.0058710528 0.0028883371 0.0057321283 
 1468000 0.0052781861  0.002529792 0.0050864134 
 1468100 0.0080614792 0.0022436537 0.0061484327 
 1468200 0.0051271484  0.002280519 0.0047639815 
 1468300 0.0069045925 0.0021504726 0.0054948846 
 1468400 0.0046887485 0.0024761075   0.00474722 
 1468500 0.0040940031 0.0025165901 0.0044996229 
 1468600 0.0030644958 0.0025313555 0.0040157207 
 1468700 0.0051411392 0.0021853297  0.004675569 
 1468800 0.0060045587  0.002124965 0.0050334231 
 1468900 0.0040880605 0.0023634872 0.0043436415 
 1469000 0.0046013101 0.0027070005 0.0049357601 
 1469100 0.0048268294 0.0027001949 0.0050381903 
 1469200 0.0053561045 0.0027183277 0.0053126908 
 1469300 0.0045193803 0.0027639324 0.0049530072 
 1469400 0.0052001729 0.0027259615 0.0052447953 
 1469500 0.0035360851 0.0027330419 0.0044458331 
 1469600  0.004497888 0.0029269507 0.0051056152 
 1469700 0.0035280897 0.0031289796  0.004837898 
 1469800  0.005287984 0.0032904618  0.005851829 
 1469900 0.0039256282 0.0031315595 0.0050330357 
 1470000 0.0058719803 0.0026055453 0.0054497858 
 1470100 0.0045546244 0.0025198495 0.0047259957 
 1470200 0.0043386744 0.0024951742 0.0045967197 
 1470300 0.0034585732 0.0025161108 0.0041913572 
 1470400 0.0051485625 0.0022823155 0.0047761505 
 1470500 0.0053961428 0.0018272287 0.0044409854 
 1470600 0.0044644606 0.0019179584 0.0040804315 
 1470700 0.0060298375 0.0024401255 0.0053608281 
 1470800 0.0041714682 0.0027824731  0.004803028 
 1470900 0.0055830404 0.0030029841 0.0057072693 
 1471000 0.0053022093 0.0028341858 0.0054024434 
 1471100 0.0048418218 0.0027305277 0.0050757852 
 1471200 0.0052712606  0.003341908 0.0058951748 
 1471300 0.0037212239 0.0035453853 0.0053478531 
 1471400  0.005960288 0.0031915115  0.006078526 
 1471500 0.0063606343 0.0033841903 0.0064651225 
 1471600  0.004243903 0.0033280359 0.0053836764 
 1471700 0.0062193388 0.0027506314 0.0057631236 
 1471800 0.0048585444 0.0022066385  0.004559996 
 1471900 0.0042144937 0.0019552565 0.0039966519 
 1472000 0.0044522164 0.0018031152 0.0039596575 
 1472100 0.0051807177 0.0022587072 0.0047681173 
 1472200 0.0059875531 0.0021867463 0.0050869674 
 1472300 0.0050069312 0.0022898906 0.0047151229 
 1472400 0.0051138476 0.0028626762 0.0053396962 
 1472500 0.0040902232 0.0029024595 0.0048836613 
 1472600 0.0069293333 0.0019714814 0.0053278772 
 1472700  0.004585096 0.0016988547 0.0039197605 
 1472800 0.0057725093 0.0022672732 0.0050633324 
 1472900 0.0054832835 0.0026328056  0.005288771 
 1473000 0.0068043817 0.0021543463 0.0054502187 
 1473100 0.0043547286 0.0022108733  0.004320195 
 1473200 0.0046783131  0.002349257 0.0046153149 
 1473300 0.0064614663 0.0019660684 0.0050958411 
 1473400 0.0068623086 0.0016807023  0.005004633 
 1473500 0.0047005024 0.0020283006 0.0043051064 
 1473600 0.0049260964 0.0019166154 0.0043026933 
 1473700 0.0055073851 0.0022361934  0.004903833 
 1473800 0.0041673586 0.0023608249 0.0043793892 
 1473900 0.0049632266 0.0026272647 0.0050313276 
 1474000 0.0048052561 0.0027502407 0.0050777867 
 1474100 0.0056103606 0.0027775463 0.0054950647 
 1474200 0.0051367627 0.0024453579 0.0049334773 
 1474300 0.0058836424 0.0024279722 0.0052778614 
 1474400 0.0055947944 0.0021247384 0.0048347169 
 1474500 0.0042135685   0.00228331 0.0043242573 
 1474600  0.005653982 0.0022109706 0.0049496181 
 1474700 0.0049223996 0.0024204892 0.0048047766 
 1474800 0.0051989898 0.0030280871 0.0055463478 
 1474900 0.0050052848  0.003481912 0.0059063469 
 1475000 0.0064279415 0.0030297168  0.006143251 
 1475100 0.0046142643 0.0026856992 0.0049207334 
 1475200 0.0066270465 0.0026755062 0.0058854819 
 1475300 0.0045424649  0.002646946 0.0048472024 
 1475400 0.0061334211 0.0023795031 0.0053503789 
 1475500  0.004498533 0.0026063752 0.0047853521 
 1475600 0.0049543076 0.0029776213 0.0053773641 
 1475700 0.0055327108   0.00298079 0.0056606968 
 1475800 0.0070644386 0.0024949984 0.0059168359 
 1475900 0.0048430193  0.002040872 0.0043867094 
 1476000 0.0054589485 0.0022118892 0.0048560674 
 1476100 0.0058895222 0.0022530029 0.0051057402 
 1476200  0.004025843 0.0025731819 0.0045231997 
 1476300 0.0059096387  0.001996735 0.0048592163 
 1476400 0.0042185351 0.0018249828 0.0038683357 
 1476500 0.0050721087 0.0013550983  0.003811901 
 1476600 0.0048744385 0.0012306635 0.0035917197 
 1476700 0.0053419837 0.0015326338 0.0041201572 
 1476800 0.0049329929 0.0019800472 0.0043694656 
 1476900  0.005798313 0.0022069372 0.0050154951 
 1477000 0.0050697057 0.0019729817 0.0044286204 
 1477100 0.0056822131 0.0019668798 0.0047192018 
 1477200 0.0054955078 0.0024309819 0.0050928685 
 1477300 0.0044047193 0.0024462649 0.0045798008 
 1477400 0.0044963769 0.0022658526 0.0044437851 
 1477500 0.0059532291 0.0019614221 0.0048450174 
 1477600 0.0051670865  0.002132019 0.0046348265 
 1477700 0.0038110932 0.0022270265 0.0040730248 
 1477800 0.0069754148 0.0019503526 0.0053290691 
 1477900 0.0047686214 0.0021962481 0.0045060491 
 1478000  0.004016675 0.0027480833 0.0046936602 
 1478100 0.0059305936  0.002378173 0.0052508043 
 1478200 0.0054470383 0.0021035375 0.0047419467 
 1478300 0.0041999957 0.0024004739 0.0044348468 
 1478400 0.0038946509 0.0023160313 0.0042025029 
 1478500 0.0047973686  0.002344509 0.0046682344 
 1478600 0.0058108778 0.0018863314 0.0047009754 
 1478700 0.0038343554 0.0018587095 0.0037159754 
 1478800 0.0048225964 0.0018993469 0.0042352921 
 1478900 0.0043776095 0.0017477253 0.0038681299 
 1479000 0.0044568009 0.0017795363 0.0039382992 
 1479100 0.0043010004  0.002014537  0.004097834 
 1479200 0.0038987863 0.0020202556 0.0039087302 
 1479300 0.0045049604 0.0021052234 0.0042873136 
 1479400 0.0056405118 0.0023767139 0.0051088368 
 1479500 0.0059612589 0.0022180996 0.0051055844 
 1479600 0.0041494114 0.0023767478 0.0043866189 
 1479700 0.0049245996 0.0023785624 0.0047639153 
 1479800 0.0041143908 0.0025126135 0.0045055215 
 1479900 0.0059935805 0.0023200104 0.0052231509 
 1480000 0.0043025554 0.0022588218 0.0043428721 
 1480100 0.0049064302 0.0020515204 0.0044280725 
 1480200 0.0056044594  0.001714465  0.004429125 
 1480300 0.0054900027 0.0015934059  0.004252626 
 1480400 0.0050951146 0.0017982589 0.0042662051 
 1480500 0.0054049151 0.0017387391 0.0043567449 
 1480600 0.0051661757 0.0015896074 0.0040919737 
 1480700 0.0046293815  0.001911817 0.0041541736 
 1480800   0.00469931 0.0024567781 0.0047330064 
 1480900 0.0039592637 0.0027705251 0.0046882934 
 1481000 0.0047559552 0.0023446785 0.0046483443 
 1481100 0.0067817506 0.0018641116 0.0051490221 
 1481200 0.0079976074 0.0016907861 0.0055646272 
 1481300 0.0061494976  0.002137501 0.0051161639 
 1481400 0.0060238975 0.0022482443 0.0051660696 
 1481500 0.0054315044  0.002681206  0.005312091 
 1481600 0.0047701884 0.0029140118 0.0052245717 
 1481700  0.005328555 0.0024549464 0.0050359653 
 1481800 0.0041824568 0.0021481239 0.0041740014 
 1481900 0.0043984344 0.0021571448 0.0042876365 
 1482000 0.0044406252 0.0020389792  0.004189907 
 1482100 0.0053910727 0.0022709707 0.0048822716 
 1482200 0.0058483313 0.0027221207 0.0055549062 
 1482300 0.0047479851 0.0024518613 0.0047516666 
 1482400 0.0045067679 0.0022904957 0.0044734614 
 1482500  0.004588522 0.0023650493 0.0045876146 
 1482600 0.0028278862 0.0027549067 0.0041246641 
 1482700 0.0051099713 0.0022070014 0.0046821438 
 1482800 0.0051092793 0.0023835402 0.0048583474 
 1482900 0.0067702422 0.0029108636 0.0061901997 
 1483000 0.0048997873 0.0032815619 0.0056548964 
 1483100 0.0044723175 0.0029766471 0.0051429259 
 1483200 0.0045576872 0.0025460132  0.004753643 
 1483300 0.0052920062 0.0025970981 0.0051604136 
 1483400 0.0058984299 0.0028403212 0.0056973732 
 1483500 0.0051266887 0.0024459059 0.0049291458 
 1483600 0.0058468191 0.0024766674 0.0053087204 
 1483700 0.0067200458 0.0032191275 0.0064741496 
 1483800 0.0043695131 0.0036261477 0.0057426306 
 1483900 0.0049222134 0.0030995894 0.0054837865 
 1484000 0.0067320277 0.0026730663 0.0059338923 
 1484100 0.0054652857 0.0023984541 0.0050457019 
 1484200 0.0039824406 0.0027132362 0.0046422308 
 1484300 0.0050476031 0.0025366928 0.0049816256 
 1484400 0.0040685371 0.0025031455 0.0044738432 
 1484500 0.0051917785 0.0029332907 0.0054480584 
 1484600 0.0064271929 0.0032628516 0.0063760232 
 1484700 0.0052913679 0.0031870806 0.0057500869 
 1484800 0.0050906723 0.0022364329 0.0047022273 
 1484900 0.0052247377 0.0020312705 0.0045620028 
 1485000 0.0056206398 0.0020957562 0.0048182536 
 1485100 0.0059862573 0.0025737045 0.0054732979 
 1485200 0.0050619041 0.0023250615 0.0047769213 
 1485300 0.0052744689 0.0021758397 0.0047306606 
 1485400 0.0055322622  0.002270648 0.0049503375 
 1485500 0.0063056616 0.0026361362 0.0056904411 
 1485600 0.0056798309 0.0024856385 0.0052368066 
 1485700 0.0050214666 0.0021744762  0.004606749 
 1485800 0.0052969738 0.0022085422 0.0047742639 
 1485900 0.0057800263 0.0017446522 0.0045443524 
 1486000 0.0048520487 0.0017687187 0.0041189298 
 1486100 0.0057241289 0.0019002465 0.0046728714 
 1486200 0.0057556689 0.0020427343 0.0048306364 
 1486300 0.0043626843 0.0026635952 0.0047767704 
 1486400 0.0061084215 0.0026065834   0.00556535 
 1486500 0.0061241518 0.0024391033 0.0054054893 
 1486600 0.0049368075 0.0028758762 0.0052671423 
 1486700 0.0058313508 0.0029286278 0.0057531884 
 1486800 0.0051278023 0.0028896424 0.0053734216 
 1486900 0.0064518104 0.0027625662 0.0058876619 
 1487000 0.0063176141 0.0028748317  0.005934926 
 1487100 0.0050726815 0.0029861194 0.0054431995 
 1487200 0.0055455832 0.0028280923 0.0055142341 
 1487300 0.0074260003 0.0021692343 0.0057662032 
 1487400 0.0044155757  0.002460575 0.0045993694 
 1487500  0.006104673 0.0022696593 0.0052266103 
 1487600 0.0048179986 0.0023457974 0.0046795154 
 1487700 0.0044675837 0.0020674565 0.0042314423 
 1487800 0.0056499035 0.0020200419  0.004756714 
 1487900 0.0058961556 0.0021509627 0.0050069131 
 1488000 0.0046036891 0.0022849882 0.0045149001 
 1488100 0.0057754054 0.0018057992 0.0046032612 
 1488200 0.0039247907 0.0016416938 0.0035427643 
 1488300 0.0051044908 0.0016857392 0.0041582269 
 1488400  0.006682853  0.001961964 0.0051989709 
 1488500 0.0054842746 0.0020758793 0.0047323248 
 1488600 0.0057108895 0.0016377811 0.0044039932 
 1488700 0.0048219591 0.0016345276  0.003970164 
 1488800 0.0048490189 0.0015564058 0.0039051493 
 1488900 0.0042536433 0.0020011205  0.004061479 
 1489000 0.0057667988 0.0021478387 0.0049411318 
 1489100 0.0061023074 0.0022439218 0.0051997269 
 1489200 0.0055792891 0.0021565821 0.0048590502 
 1489300 0.0049288941 0.0025653193 0.0049527524 
 1489400 0.0063644016 0.0024871088 0.0055698658 
 1489500 0.0056648337 0.0022318175 0.0049757213 
 1489600 0.0038204247 0.0022832525 0.0041337707 
 1489700 0.0055035658 0.0021588585 0.0048246482 
 1489800 0.0063585962 0.0026595234 0.0057394684 
 1489900  0.004018843 0.0029170996 0.0048637267 
 1490000 0.0049821911 0.0025394783 0.0049527272 
 1490100  0.004909771 0.0023586023 0.0047367727 
 1490200 0.0037253628 0.0028140792 0.0046185518 
 1490300 0.0048597969 0.0029160312 0.0052699953 
 1490400 0.0053418387 0.0031859585 0.0057734116 
 1490500 0.0056092676 0.0028200095 0.0055369984 
 1490600 0.0050503728 0.0027300319 0.0051763062 
 1490700 0.0047196498 0.0029250784 0.0052111588 
 1490800 0.0055656183  0.002515091 0.0052109374 
 1490900 0.0065897572 0.0024517164 0.0056436301 
 1491000 0.0037002534 0.0029001476 0.0046924578 
 1491100 0.0051309518 0.0028661201 0.0053514249 
 1491200 0.0046760237 0.0023751263 0.0046400753 
 1491300 0.0046028728 0.0026471566 0.0048766731 
 1491400 0.0056076008 0.0027225108 0.0054386924 
 1491500 0.0073205627 0.0026921773 0.0062380748 
 1491600 0.0046316999 0.0029013466 0.0051448262 
 1491700 0.0044795833 0.0033444539  0.005514252 
 1491800 0.0054948471  0.003355488 0.0060170545 
 1491900 0.0063417956 0.0034441274 0.0065159347 
 1492000 0.0066953072 0.0035676007 0.0068106401 
 1492100 0.0060243519 0.0031159268 0.0060339723 
 1492200 0.0051499326 0.0028321085 0.0053266071 
 1492300 0.0040746114 0.0025845768 0.0045582167 
 1492400 0.0057578957 0.0024006181 0.0051895988 
 1492500 0.0038487827 0.0026427151 0.0045069693 
 1492600 0.0053619727 0.0022550652 0.0048522708 
 1492700 0.0051616003 0.0026298359  0.005129986 
 1492800 0.0055224395 0.0021574164  0.004832348 
 1492900 0.0047938001 0.0021527827 0.0044747796 
 1493000 0.0049153244 0.0027115891 0.0050924494 
 1493100 0.0059746946 0.0033884278 0.0062824205 
 1493200 0.0053261293 0.0032920518 0.0058718957 
 1493300 0.0050947655 0.0025692965 0.0050370736 
 1493400 0.0044536975 0.0021920431 0.0043493029 
 1493500 0.0058978217 0.0025478137 0.0054045711 
 1493600 0.0064559356 0.0027056661 0.0058327599 
 1493700 0.0041067469 0.0026456194 0.0046348249 
 1493800 0.0037871858 0.0025261438 0.0043605619 
 1493900 0.0051848036 0.0022104405 0.0047218298 
 1494000 0.0043768873 0.0023610758 0.0044811306 
 1494100 0.0044363164 0.0023671264 0.0045159671 
 1494200 0.0045735337 0.0023929445 0.0046082499 
 1494300 0.0055136359 0.0028011205 0.0054717879 
 1494400 0.0041166246  0.002691215  0.004685205 
 1494500 0.0047952123 0.0021624988 0.0044851798 
 1494600 0.0038322092 0.0020733952 0.0039296216 
 1494700 0.0051380274  0.002322092  0.004810824 
 1494800 0.0050383645 0.0023666396 0.0048070974 
 1494900 0.0053929369 0.0024611274 0.0050733312 
 1495000  0.004188918 0.0024976805 0.0045266876 
 1495100  0.004018294 0.0025651543 0.0045115154 
 1495200 0.0054381679 0.0023494233 0.0049835359 
 1495300 0.0069565682 0.0023271192  0.005696707 
 1495400 0.0056186864 0.0028151237 0.0055366749 
 1495500 0.0056347975 0.0024617072 0.0051910622 
 1495600 0.0068129711 0.0023636768 0.0056637097 
 1495700  0.003345434 0.0027466416 0.0043670862 
 1495800 0.0059046908 0.0027948612 0.0056549458 
 1495900 0.0056643063 0.0031312047 0.0058748531 
 1496000 0.0055099728 0.0029440127 0.0056129057 
 1496100 0.0031718387  0.003092332 0.0046286913 
 1496200 0.0054945273 0.0026809147 0.0053423264 
 1496300 0.0043738281 0.0025371847 0.0046557577 
 1496400 0.0061265897 0.0027495625 0.0057171294 
 1496500 0.0043294957 0.0030549727 0.0051520722 
 1496600 0.0050641985 0.0027234964 0.0051764676 
 1496700 0.0041811313 0.0027607159 0.0047859514 
 1496800 0.0055335632 0.0025767913  0.005257111 
 1496900 0.0048510425 0.0024440105 0.0047937342 
 1497000 0.0055826287 0.0025559732  0.005260059 
 1497100 0.0064154809 0.0025386464  0.005646145 
 1497200 0.0061395045 0.0021743814 0.0051482039 
 1497300 0.0048821362 0.0020078182  0.004372603 
 1497400 0.0041171466 0.0023800197 0.0043742626 
 1497500  0.004329975 0.0023736652 0.0044709969 
 1497600 0.0056409431 0.0021195037 0.0048518355 
 1497700 0.0050961429  0.001490641 0.0039590852 
 1497800 0.0049096727 0.0014175568 0.0037956795 
 1497900 0.0063112799 0.0016145152 0.0046715414 
 1498000 0.0065450946 0.0016330442 0.0048033244 
 1498100  0.007206879 0.0021038482 0.0055946802 
 1498200 0.0049889919  0.002571469 0.0049880119 
 1498300 0.0055836115 0.0022214148 0.0049259766 
 1498400 0.0050236533 0.0025560392 0.0049893713 
 1498500 0.0062812146 0.0028135083 0.0058559716 
 1498600 0.0054674741 0.0027356409 0.0053839487 
 1498700 0.0040454475 0.0024576682 0.0044171818 
 1498800 0.0057647208  0.001877738 0.0046700246 
 1498900 0.0066520279 0.0019576707 0.0051797467 
 1499000 0.0042304979  0.002506956 0.0045561034 
 1499100 0.0043280445 0.0027235177 0.0048199143 
 1499200 0.0049958603 0.0023958777 0.0048157475 
 1499300 0.0044065335 0.0022032415 0.0043376562 
 1499400 0.0049054102 0.0019096831 0.0042857411 
 1499500 0.0062074356 0.0017407226 0.0047474492 
 1499600  0.004435407 0.0017088946 0.0038572949 
 1499700 0.0061949197 0.0015668778 0.0045675421 
 1499800 0.0059762494 0.0019978583 0.0048926041 
 1499900  0.005773115 0.0022603093 0.0050566619 
 1500000 0.0057672132 0.0020956285 0.0048891224 
Loop time of 22.2359 on 1 procs for 1500000 steps with 64 atoms

Pair  time (%) = 0 (0)
Bond  time (%) = 7.38086 (33.1934)
Neigh time (%) = 1.52957 (6.87883)
Comm  time (%) = 2.03637 (9.15801)
Outpt time (%) = 0.0799634 (0.359614)
Other time (%) = 11.2092 (50.4102)

Nlocal:    64 ave 64 max 64 min
Histogram: 1 0 0 0 0 0 0 0 0 0
Nghost:    4 ave 4 max 4 min
Histogram: 1 0 0 0 0 0 0 0 0 0
Neighs:    0 ave 0 max 0 min
Histogram: 1 0 0 0 0 0 0 0 0 0

Total # of neighbors = 0
Ave neighs/atom = 0
Ave special neighs/atom = 6
Neighbor list builds = 1500000
Dangerous builds = 0
