LAMMPS (18 Aug 2010)
# 3D simple cubic lattice simulation
dimension   2
boundary    p f p

units		   lj
atom_style	bond
atom_modify sort 0 1.
bond_style  harmonic
pair_style  none
communicate single cutoff 2.0

# geometry
read_data	data.pos
  1 = max bonds/atom
  orthogonal box = (0 -1 -0.0001) to (16 1 0.0001)
  1 by 1 by 1 processor grid
  16 atoms
  16 bonds
  2 = max # of 1-2 neighbors
  2 = max # of 1-3 neighbors
  4 = max # of 1-4 neighbors
  6 = max # of special neighbors

#
neighbor 0.5 nsq
neigh_modify delay 0 check no

#Langevin random seed
variable r equal 571101

#Langevin Temperature
variable t equal 0.005

# Langevin Damping variable
variable d equal 0.5

# time step
timestep  0.005

# Create velocities and equilibrate 
compute   MyTemp all temp/partial 1 0 0
velocity  all create $t 28711 mom yes rot yes dist gaussian temp MyTemp
velocity  all create 0.005 28711 mom yes rot yes dist gaussian temp MyTemp
velocity  all set NULL 0.0 0.0 units box
#
fix        1 all langevin $t $t $d $r
fix        1 all langevin 0.005 $t $d $r
fix        1 all langevin 0.005 0.005 $d $r
fix        1 all langevin 0.005 0.005 0.5 $r
fix        1 all langevin 0.005 0.005 0.5 571101
fix_modify 1 temp MyTemp
fix        2 all setforce NULL 0. 0.
fix        3 all nve
fix        4 all phonon 10 50000 500000 map.in phonon sysdim 1
fix_modify 4 temp MyTemp
#
#                    1    2    3  4
thermo_style  custom step temp pe etotal
thermo_modify temp MyTemp
thermo   100

dump    	4 all atom 50000 dump_LJ_ANA.lammpstrj 

run 		1500000
Memory usage per processor = 1.36458 Mbytes
Step Temp PotEng TotEng 
       0        0.005            0    0.0021875 
     100 0.0052582833 0.00042454695 0.0027250459 
     200 0.0037929256 0.00078717952 0.0024465845 
     300 0.0050302297 0.0010230842 0.0032238097 
     400  0.004851209 0.0017772218 0.0038996258 
     500 0.0048001893 0.0023495103 0.0044495931 
     600 0.0071864309 0.0021498581 0.0052939216 
     700 0.0062731642 0.0026472463 0.0053917556 
     800 0.0039130263 0.0024219408 0.0041338898 
     900 0.0066029435 0.0026364589 0.0055252467 
    1000 0.0033863248  0.002901388 0.0043829051 
    1100 0.0078300995 0.0027958215   0.00622149 
    1200 0.0032420142 0.0019561442 0.0033745254 
    1300  0.003166723 0.0022574091 0.0036428504 
    1400 0.0046842029 0.0028270647 0.0048764035 
    1500 0.0046534548  0.001861661 0.0038975475 
    1600 0.0048400964 0.0019194446 0.0040369868 
    1700 0.0068876188 0.0022768062 0.0052901394 
    1800 0.0058630374 0.0026895336 0.0052546124 
    1900 0.0067763448 0.0031705149 0.0061351658 
    2000 0.0028521472 0.0029429702 0.0041907846 
    2100  0.014019331 0.0017081189 0.0078415764 
    2200 0.0068857329 0.0019782642 0.0049907723 
    2300 0.0036202249 0.0034976889 0.0050815374 
    2400 0.0064046268 0.0042894117 0.0070914359 
    2500  0.004170852 0.0039102889 0.0057350366 
    2600 0.0032424349 0.0043634843 0.0057820496 
    2700  0.005943887 0.0031345273 0.0057349779 
    2800 0.0041810313 0.0031508153 0.0049800165 
    2900 0.0057138128 0.0042156888 0.0067154819 
    3000  0.010852901 0.0034134574 0.0081616017 
    3100 0.0055052637 0.0030589742 0.0054675271 
    3200 0.0083427889 0.0026363895 0.0062863596 
    3300 0.0041930414 0.0032586043   0.00509306 
    3400 0.0065903691 0.0031192284 0.0060025149 
    3500 0.0069631377 0.0023367446 0.0053831174 
    3600 0.0035468181 0.0040650476 0.0056167805 
    3700 0.0094180866 0.0024931962 0.0066136091 
    3800 0.0028575981 0.0018430221 0.0030932213 
    3900 0.0054026108 0.0015242916 0.0038879338 
    4000 0.0062976771 0.0013851038 0.0041403375 
    4100 0.0055999658 0.0014113654 0.0038613504 
    4200 0.0085926963 0.0011463044 0.0049056091 
    4300 0.0045834484 0.0021175333  0.004122792 
    4400 0.0043904208 0.0027673189  0.004688128 
    4500 0.0060287947 0.0025463473  0.005183945 
    4600 0.0056874305 0.0033705712  0.005858822 
    4700 0.0058570747 0.0038026631 0.0063651333 
    4800 0.0032838837 0.0033553779 0.0047920771 
    4900  0.008105981 0.0024391452 0.0059855119 
    5000 0.0055909296 0.0031461438 0.0055921755 
    5100 0.0089489173 0.0031184621 0.0070336134 
    5200 0.0074187627 0.0024479917 0.0056937003 
    5300 0.0035069001 0.0023384201 0.0038726889 
    5400 0.0051821946 0.0019695809 0.0042367911 
    5500 0.0025937436 0.0015428216 0.0026775844 
    5600 0.0064406472 0.0019224095 0.0047401927 
    5700 0.0047088946 0.0028405249 0.0049006663 
    5800  0.003192305 0.0033604121 0.0047570455 
    5900 0.0059188559  0.002641362 0.0052308615 
    6000 0.0076440886 0.0017078944 0.0050521832 
    6100 0.0037495203 0.0018759069  0.003516322 
    6200 0.0078870061 0.0017405812 0.0051911464 
    6300 0.0095406137 0.0031552903 0.0073293088 
    6400 0.0027437237 0.0046158899 0.0058162691 
    6500 0.0031889272 0.0025838402 0.0039789958 
    6600 0.0066381381 0.0013193866  0.004223572 
    6700 0.0060628693 0.0012421499 0.0038946552 
    6800 0.0079587509 0.0016019784 0.0050839319 
    6900 0.0044455518 0.0010759526 0.0030208815 
    7000  0.004343898 0.0016488899 0.0035493453 
    7100 0.0033793595 0.0017824567 0.0032609264 
    7200 0.0035591023 0.0017561658  0.003313273 
    7300 0.0072779368 0.0017540273 0.0049381246 
    7400 0.0045563634 0.0026588799 0.0046522889 
    7500 0.0065979584 0.0035834679 0.0064700747 
    7600  0.010121452 0.0031460583 0.0075741935 
    7700 0.0062573244 0.0038536794 0.0065912589 
    7800 0.0088860193 0.0035552656 0.0074428991 
    7900 0.0073196594 0.0032723569 0.0064747079 
    8000 0.0058743531 0.0030842224 0.0056542519 
    8100 0.0051396932 0.0027815318 0.0050301475 
    8200 0.0036396247  0.003176125 0.0047684608 
    8300 0.0067625395 0.0025747697 0.0055333807 
    8400 0.0031848141 0.0015002828 0.0028936389 
    8500 0.0065930616 0.0014225573 0.0043070217 
    8600   0.00490526 0.0016424685 0.0037885198 
    8700 0.0058280898  0.001087078 0.0036368673 
    8800 0.0049105731 0.00091641322 0.0030647889 
    8900 0.0043599304 0.00096190072 0.0028693703 
    9000 0.0096327964 0.00065562206 0.0048699705 
    9100 0.0035526042 0.0015834901 0.0031377544 
    9200 0.0078891783 0.0011163949 0.0045679104 
    9300 0.0060793578 0.0015863697 0.0042460887 
    9400 0.0047648354 0.0030141687 0.0050987842 
    9500 0.0061246225 0.0041108723 0.0067903946 
    9600 0.0071636061  0.004721518 0.0078555957 
    9700  0.005622788 0.0037670827 0.0062270525 
    9800 0.0049814529 0.0024413792 0.0046207649 
    9900 0.0045327156  0.002887689 0.0048707521 
   10000 0.0048347922 0.0036561322 0.0057713538 
   10100 0.0059786647 0.0015969256 0.0042125914 
   10200 0.0065576364 0.0017537683 0.0046227343 
   10300 0.0069564158 0.0015913166 0.0046347485 
   10400 0.0085990156   0.00163105 0.0053931193 
   10500 0.0028433333 0.0023989452 0.0036429035 
   10600 0.0023026203 0.0025907895 0.0035981859 
   10700 0.0075707346  0.001815379 0.0051275754 
   10800 0.0022264373 0.0022231593 0.0031972256 
   10900 0.0042939407 0.0013165967 0.0031951958 
   11000 0.0065986324 0.0010656004 0.0039525021 
   11100 0.0065719709 0.0019925347 0.0048677719 
   11200  0.005800795 0.0040771205 0.0066149683 
   11300 0.0079023883  0.002767543 0.0062248379 
   11400 0.0071047185 0.0021929163 0.0053012307 
   11500 0.0044366091  0.002125785 0.0040668015 
   11600 0.0077277771 0.0018678624 0.0052487649 
   11700 0.0073295146  0.002226845 0.0054335076 
   11800 0.0047182815 0.0025905045 0.0046547527 
   11900 0.0027390309 0.0034279595 0.0046262855 
   12000 0.0046667793 0.0033492111  0.005390927 
   12100 0.0098711619 0.0032190405 0.0075376738 
   12200 0.0041310477 0.0026972176 0.0045045509 
   12300 0.0050837911  0.002187942 0.0044121006 
   12400 0.0054593547 0.0025444796 0.0049329473 
   12500 0.0047383456 0.0018010943 0.0038741205 
   12600 0.0051765086 0.0020325219 0.0042972444 
   12700 0.0070550541 0.0022604458  0.005347032 
   12800 0.0062167788 0.0022402171 0.0049600578 
   12900 0.0041465461 0.0020501756 0.0038642895 
   13000 0.0072512431 0.0022845178 0.0054569367 
   13100 0.0038648814 0.0032222104  0.004913096 
   13200 0.0074256442 0.0020444824 0.0052932018 
   13300  0.007435532 0.0017203571 0.0049734023 
   13400 0.0068273091 0.0017962061 0.0047831538 
   13500 0.0086047543  0.001924783  0.005689363 
   13600  0.010141254  0.002454442 0.0068912405 
   13700 0.0034598272 0.0042663835 0.0057800579 
   13800 0.0080497833 0.0026218015 0.0061435818 
   13900 0.0091052612 0.0026298348 0.0066133866 
   14000 0.0062143259 0.0030670771 0.0057858447 
   14100 0.0060724632 0.0032945729 0.0059512756 
   14200   0.01042416 0.0031288821  0.007689452 
   14300 0.0062472007 0.0031260723 0.0058592226 
   14400  0.005100469 0.0021919367 0.0044233918 
   14500 0.0061130025 0.0019096555 0.0045840941 
   14600 0.0076996443 0.0018674914 0.0052360858 
   14700 0.0064544008 0.0019036543 0.0047274546 
   14800 0.0048627809  0.001953757 0.0040812236 
   14900 0.0032832769 0.0014900278 0.0029264614 
   15000 0.0036839536  0.001626117 0.0032378467 
   15100   0.00477265  0.002147306 0.0042353403 
   15200  0.010984757 0.0015298876 0.0063357189 
   15300 0.0052619161 0.0015559704 0.0038580587 
   15400 0.0066637705 0.0015309805 0.0044463801 
   15500 0.0050372929  0.003108664 0.0053124797 
   15600 0.0042692871 0.0029143794 0.0047821925 
   15700 0.0082198365 0.0017479889 0.0053441674 
   15800 0.0052369009 0.0017642365 0.0040553806 
   15900 0.0039643621 0.0017868687 0.0035212771 
   16000 0.0073898013 0.0025906539 0.0058236919 
   16100 0.0041580797 0.0026524767 0.0044716366 
   16200 0.0048295962 0.0018279992 0.0039409475 
   16300 0.0055148236 0.0014317291 0.0038444645 
   16400 0.0059515043 0.0019208368 0.0045246199 
   16500 0.0066549106 0.0014180667 0.0043295901 
   16600 0.0065583719 0.0015326053  0.004401893 
   16700 0.0093394786 0.0017523145 0.0058383364 
   16800 0.0059983658 0.0024970931 0.0051213781 
   16900 0.0054347453 0.0021574037 0.0045351048 
   17000 0.0043912036 0.0013422787 0.0032634303 
   17100 0.0057029638 0.0023774977 0.0048725444 
   17200 0.0044455847 0.0015226426 0.0034675859 
   17300 0.0072800343 0.0019748978 0.0051599128 
   17400  0.007427346 0.0030614644 0.0063109282 
   17500  0.007359202 0.0024169155 0.0056365663 
   17600 0.0088201998 0.0021559986 0.0060148361 
   17700  0.007173411 0.0034857998 0.0066241671 
   17800 0.0076717893 0.0040923349 0.0074487427 
   17900 0.0036519101 0.0053641646 0.0069618753 
   18000 0.0066771049 0.0033444698 0.0062657032 
   18100 0.0052102455 0.0021183982 0.0043978806 
   18200 0.0050911224 0.0021077632 0.0043351292 
   18300 0.0041477827 0.0020896736 0.0039043285 
   18400 0.0055008339  0.002048291 0.0044549058 
   18500  0.004677879 0.0025012068 0.0045477789 
   18600 0.0076928817 0.0013493593  0.004714995 
   18700  0.003247467 0.0028001894 0.0042209562 
   18800 0.0042108266 0.0026003532 0.0044425898 
   18900 0.0066427678 0.0022715755 0.0051777864 
   19000 0.0060384702 0.0022845538 0.0049263845 
   19100  0.005136951 0.0020053586 0.0042527747 
   19200 0.0040839907 0.0019331332 0.0037198791 
   19300 0.0027960261 0.0021291626  0.003352424 
   19400 0.0087107653 0.0016955983 0.0055065581 
   19500  0.002927014 0.0020001828 0.0032807514 
   19600 0.0065181921 0.0017352834 0.0045869924 
   19700 0.0082090888 0.0021121976  0.005703674 
   19800 0.0047569382 0.0019104277 0.0039915882 
   19900 0.0051869711 0.0018460868 0.0041153867 
   20000 0.0052924612 0.0012851666 0.0036006184 
   20100 0.0067449367 0.00092177492 0.0038726847 
   20200 0.0040460374 0.0014685574 0.0032386988 
   20300 0.0055239391 0.00079679818 0.0032135215 
   20400 0.0057339479 0.0013505918  0.003859194 
   20500 0.0047595425 0.0022656926 0.0043479924 
   20600 0.0082514507 0.0022216325 0.0058316422 
   20700 0.0057850933 0.0016954115 0.0042263898 
   20800  0.005300479 0.0011293122 0.0034482718 
   20900 0.0033876776 0.0019665251  0.003448634 
   21000 0.0051752286 0.0026155311 0.0048796936 
   21100 0.0047061881 0.0029127174 0.0049716747 
   21200 0.0085073746 0.0017657482 0.0054877246 
   21300 0.0039054047 0.0016772527 0.0033858673 
   21400  0.005653017 0.0019839125 0.0044571075 
   21500 0.0034407476 0.0017138369 0.0032191639 
   21600 0.0053337531 0.0013590279 0.0036925448 
   21700 0.0031192085 0.0012382887 0.0026029424 
   21800 0.0048541997 0.0020944398 0.0042181522 
   21900 0.0045344291  0.003684617 0.0056684297 
   22000 0.0056516552 0.0020482978  0.004520897 
   22100 0.0052258616 0.00077560403 0.0030619185 
   22200 0.0052096298 0.0011580876 0.0034373006 
   22300 0.0045124793 0.0015107812 0.0034849908 
   22400 0.0052528991 0.0014299461 0.0037280894 
   22500 0.0060617106 0.0011731266  0.003825125 
   22600  0.001985575 0.0024920606 0.0033607497 
   22700  0.005298668 0.0021045289 0.0044226962 
   22800 0.0082482873 0.0010142336 0.0046228593 
   22900 0.0057386362 0.00093648471 0.0034471381 
   23000 0.0034173803 0.0023957308 0.0038908347 
   23100  0.009380658 0.0030462829 0.0071503208 
   23200 0.0040754935 0.0029521178 0.0047351462 
   23300 0.0061569559 0.0027649398 0.0054586081 
   23400 0.0062245148 0.0020503262 0.0047735515 
   23500 0.0087878815 0.0010768763 0.0049215745 
   23600 0.0043787872 0.0014063202 0.0033220396 
   23700 0.0062829215 0.0021560088 0.0049047869 
   23800 0.0034437016 0.0018838955  0.003390515 
   23900 0.0059595891 0.0016897621 0.0042970823 
   24000 0.0060167734 0.0018493222 0.0044816606 
   24100 0.0047771056 0.0017038664 0.0037938501 
   24200  0.005627799 0.0015237786 0.0039859406 
   24300 0.0031474004 0.0018256111 0.0032025987 
   24400 0.0051480935 0.0016701091    0.0039224 
   24500 0.0031924834 0.0019914966 0.0033882081 
   24600 0.0037821189 0.0020789376 0.0037336146 
   24700 0.0050068172  0.002616286 0.0048067686 
   24800 0.0052482264  0.002717329 0.0050134281 
   24900 0.0045050313  0.002562591 0.0045335422 
   25000 0.0072951207 0.00081631403 0.0040079293 
   25100 0.0070962364 0.00075048509 0.0038550885 
   25200  0.003636746 0.0017027116  0.003293788 
   25300 0.0046687497 0.0017774497 0.0038200277 
   25400  0.005040636 0.0019110306 0.0041163089 
   25500 0.0097744456 0.0018585302 0.0061348501 
   25600 0.0065562368 0.00083692775 0.0037052813 
   25700 0.0087191271 0.0013512196 0.0051658377 
   25800 0.0047736844 0.0035977172 0.0056862041 
   25900 0.00096752545 0.0036170637 0.0040403561 
   26000 0.0082196149 0.0020536227 0.0056497042 
   26100 0.0050699849 0.0015566371 0.0037747555 
   26200 0.0043863359 0.0017466252 0.0036656472 
   26300 0.0063333028 0.0028449372 0.0056157572 
   26400 0.0047967741 0.0027204527 0.0048190413 
   26500 0.0051007417 0.0015121563 0.0037437308 
   26600 0.0066140145 0.0022106238 0.0051042551 
   26700 0.0024606007 0.0035466841 0.0046231969 
   26800 0.0055190695 0.0029356784 0.0053502713 
   26900 0.0039244752 0.0032566741  0.004973632 
   27000 0.0067310042 0.0021501735 0.0050949879 
   27100 0.0075132201 0.0020925731 0.0053796069 
   27200 0.0034492911 0.0034457802  0.004954845 
   27300   0.01031893 0.0032401404 0.0077546723 
   27400  0.010042069 0.0026715252 0.0070649303 
   27500 0.0050306445 0.0018598481 0.0040607551 
   27600 0.0046858942 0.00098211728  0.003032196 
   27700 0.0026022408 0.0012556802 0.0023941606 
   27800 0.0041415745 0.0015765343 0.0033884732 
   27900 0.0052230576 0.0025125723   0.00479766 
   28000 0.0054724171 0.0020450479 0.0044392303 
   28100 0.0042213745 0.0025441031 0.0043909545 
   28200 0.0082245928  0.003018054 0.0066163133 
   28300 0.0078422058 0.0024526034 0.0058835684 
   28400 0.0026283963 0.0028697127 0.0040196361 
   28500 0.0068747932 0.0029843246 0.0059920466 
   28600 0.0058094835 0.0032383165 0.0057799656 
   28700 0.0074892866 0.0027971605 0.0060737234 
   28800 0.0031987121  0.002630869 0.0040303056 
   28900 0.0073142221 0.0027096786 0.0059096508 
   29000 0.0068545814 0.0023264237 0.0053253031 
   29100 0.0057867043 0.0027921727 0.0053238559 
   29200 0.0055428147 0.0033424253 0.0057674068 
   29300 0.0036298248 0.0033898566  0.004977905 
   29400 0.0029791511 0.0033538506 0.0046572292 
   29500 0.0079091163 0.0021438729 0.0056041113 
   29600 0.0091586897 0.0019548964 0.0059618232 
   29700 0.0062116524 0.0020056101  0.004723208 
   29800 0.0032483775 0.0030264964 0.0044476615 
   29900  0.003837791 0.0025929418 0.0042719754 
   30000 0.0054355735 0.0018826996  0.004260763 
   30100 0.0070960829  0.001021653 0.0041261892 
   30200  0.003447442 0.0017068061  0.003215062 
   30300  0.005557288 0.0019024967 0.0043338102 
   30400 0.0051766066 0.0022740401 0.0045388054 
   30500  0.005303511 0.0017256246 0.0040459107 
   30600 0.0050052456 0.0017427083 0.0039325032 
   30700 0.0025624627 0.0012927998 0.0024138772 
   30800 0.0093892259 0.00087364365   0.00498143 
   30900 0.0038910879 0.0014976156 0.0031999666 
   31000 0.0053851192 0.0013001368 0.0036561264 
   31100 0.0049282482 0.0011823021 0.0033384107 
   31200 0.0095787101  0.001967422 0.0061581077 
   31300 0.0094570387 0.0019515017 0.0060889561 
   31400  0.004784587 0.0020128434 0.0041061002 
   31500 0.0063088072 0.0013120528 0.0040721559 
   31600  0.004727896 0.0014668135 0.0035352679 
   31700 0.0039037065 0.0014854804  0.003193352 
   31800 0.0075643369 0.0017837828 0.0050931802 
   31900 0.0033941432 0.0020727048 0.0035576425 
   32000 0.0056214176 0.0016881237 0.0041474939 
   32100 0.0047720263 0.0011193731 0.0032071346 
   32200 0.0030368916  0.001731108 0.0030597481 
   32300  0.010812568 0.0011815932 0.0059120918 
   32400 0.0046184329 0.0019582241 0.0039787884 
   32500 0.0088061416 0.0021422999 0.0059949868 
   32600 0.0059499834  0.001051612 0.0036547297 
   32700 0.0073846482 0.0017739639 0.0050047474 
   32800 0.0037961182 0.0026200241 0.0042808258 
   32900 0.0042707311  0.002658537 0.0045269819 
   33000 0.0049567543 0.0030479469  0.005216527 
   33100 0.0059923936 0.0025141066 0.0051357788 
   33200 0.0060127977 0.0028712143 0.0055018133 
   33300 0.0041408549 0.0028315382 0.0046431622 
   33400 0.0083516737 0.0016023111 0.0052561683 
   33500  0.006637364 0.0015185331 0.0044223798 
   33600 0.0026142504 0.0018897373 0.0030334718 
   33700 0.0053584578 0.0018199569 0.0041642822 
   33800 0.0017035729 0.0019800137 0.0027253268 
   33900 0.0083003837  0.001602989 0.0052344068 
   34000 0.0049530054 0.0012275689 0.0033945088 
   34100 0.0039190682 0.0017253532 0.0034399456 
   34200 0.0051752279 0.0025181708  0.004782333 
   34300 0.0062384413 0.0017657466 0.0044950646 
   34400 0.0015290304 0.0017146813 0.0023836321 
   34500 0.0033115049 0.0013574534 0.0028062368 
   34600 0.0077778738 0.0008572249 0.0042600447 
   34700 0.0030792174 0.0014091831 0.0027563407 
   34800 0.0087233197 0.0020591291 0.0058755815 
   34900 0.0046297861 0.0031511007 0.0051766321 
   35000 0.0057339768 0.0019189539 0.0044275688 
   35100 0.0021034059 0.0024708357 0.0033910757 
   35200 0.0059417799 0.0016486956 0.0042482243 
   35300 0.0035088994 0.0019572661 0.0034924095 
   35400 0.0046302415 0.0016799679 0.0037056986 
   35500 0.0035276682 0.0014021034 0.0029454583 
   35600 0.0063583956 0.00094508892  0.003726887 
   35700  0.006740213 0.0011953975 0.0041442406 
   35800 0.0076340138 0.0015149471 0.0048548281 
   35900 0.0052816125 0.0024401962 0.0047509017 
   36000 0.0064111243 0.0029914276 0.0057962945 
   36100 0.0090605829  0.002108472  0.006072477 
   36200 0.0078132391 0.0020512112 0.0054695034 
   36300 0.0068018674 0.0023470911 0.0053229081 
   36400 0.0063038968 0.0020287013 0.0047866561 
   36500 0.0033438859 0.0023173523 0.0037803024 
   36600 0.0086060284 0.0019879858 0.0057531232 
   36700 0.0084102741 0.0038032069 0.0074827018 
   36800 0.0040653966 0.0039777533 0.0057563644 
   36900 0.0052246455 0.0034866304 0.0057724128 
   37000  0.003746136 0.0039007381 0.0055396726 
   37100 0.0067382836 0.0029297481 0.0058777472 
   37200  0.010577358 0.0024780204 0.0071056143 
   37300 0.0084869699 0.0028056666 0.0065187159 
   37400 0.0080388777 0.0014624977 0.0049795067 
   37500 0.0017423035 0.0015321769 0.0022944347 
   37600 0.0042150127 0.0011399453 0.0029840133 
   37700  0.005328349 0.0017238943  0.004055047 
   37800 0.0025318997 0.0019050699  0.003012776 
   37900 0.0062917878 0.0016669505 0.0044196076 
   38000 0.0064799487 0.0014161822 0.0042511597 
   38100 0.0067185618 0.00084042452 0.0037797953 
   38200 0.0058130381 0.0013539497 0.0038971539 
   38300 0.0064065243 0.0021457588 0.0049486132 
   38400 0.0032885484 0.0030321336 0.0044708735 
   38500 0.0053275046 0.0029486309 0.0052794142 
   38600 0.0058042451 0.0034294953 0.0059688525 
   38700  0.005360248 0.0018677824 0.0042128909 
   38800 0.0044859513 0.0011469171 0.0031095208 
   38900 0.0054374333  0.001172078 0.0035509551 
   39000 0.0051926313 0.0019263702 0.0041981464 
   39100 0.0041022256 0.0017066111 0.0035013348 
   39200 0.0062320726 0.0020243174 0.0047508491 
   39300 0.0057304376 0.0024177074 0.0049247738 
   39400 0.0041482255 0.0029172631 0.0047321118 
   39500 0.0060238171 0.0035995616 0.0062349815 
   39600 0.0059743517  0.003430911 0.0060446899 
   39700 0.0079514173 0.0027200705 0.0061988156 
   39800 0.0047469327 0.0030986417 0.0051754248 
   39900 0.0063179732 0.0038097201 0.0065738334 
   40000 0.0066286863 0.0034756867  0.006375737 
   40100 0.0042839405 0.0027422017 0.0046164256 
   40200 0.0036783955 0.0025434192 0.0041527172 
   40300 0.0035555744   0.00283144 0.0043870038 
   40400 0.0043353829 0.0025866236 0.0044833536 
   40500 0.0039543829 0.0029661714 0.0046962139 
   40600 0.0026952521 0.0027991425 0.0039783153 
   40700 0.0044221642 0.0028063013 0.0047409982 
   40800  0.010027795 0.0040727507 0.0084599108 
   40900 0.0094375206 0.0041492063 0.0082781216 
   41000 0.0065745317 0.0031224149 0.0059987725 
   41100  0.004599324 0.0032477912 0.0052599955 
   41200  0.005980141 0.0034863234 0.0061026351 
   41300 0.0051563196 0.0031870098 0.0054428997 
   41400  0.005285807 0.0028338851 0.0051464257 
   41500  0.004950003 0.0023641399 0.0045297663 
   41600 0.0046355879 0.0018793195 0.0039073892 
   41700 0.0061723433 0.0016225338  0.004322934 
   41800 0.0045163771 0.0018527748 0.0038286898 
   41900 0.0064164198 0.0016405079 0.0044476915 
   42000 0.0078630042 0.0019365845 0.0053766488 
   42100 0.0091689691 0.0026259734 0.0066373974 
   42200 0.0075636175 0.0027627522 0.0060718349 
   42300  0.010863717 0.0027705873 0.0075234634 
   42400  0.008665948 0.0020884722 0.0058798244 
   42500 0.0035025288 0.0039153902 0.0054477465 
   42600 0.0050088144 0.0034443108 0.0056356671 
   42700 0.0068555247 0.0024093626 0.0054086546 
   42800 0.0044706893 0.0015671554  0.003523082 
   42900 0.0055554791 0.0018295036 0.0042600257 
   43000 0.0063114507 0.0026578072 0.0054190669 
   43100 0.0034601676 0.0019970596 0.0035108829 
   43200 0.0045672569 0.0012454743 0.0032436492 
   43300 0.0044834269 0.0013533687  0.003314868 
   43400 0.0083172642 0.0014237037 0.0050625068 
   43500 0.0075284263 0.0021094648 0.0054031513 
   43600 0.0022323795 0.0023523051 0.0033289712 
   43700 0.0058929986 0.0013631583 0.0039413452 
   43800 0.0050497988 0.0010408474 0.0032501344 
   43900 0.0046959021 0.00060294516 0.0026574023 
   44000 0.0092033682 0.0016820521 0.0057085257 
   44100 0.0040203799 0.0025632927 0.0043222089 
   44200  0.004075316 0.0021764163  0.003959367 
   44300 0.0046287108 0.0020675483 0.0040926092 
   44400 0.0042011527 0.0013009283 0.0031389327 
   44500 0.0030644936 0.0020396639 0.0033803798 
   44600 0.0072007641 0.0019617077  0.005112042 
   44700 0.0036074887 0.0018976276 0.0034759039 
   44800 0.0037450844 0.0017768938 0.0034153682 
   44900 0.0067806593 0.0021009608 0.0050674992 
   45000 0.0089739665 0.0019488965 0.0058750069 
   45100 0.0040386984 0.0026529634  0.004419894 
   45200 0.0050649051 0.0028018503 0.0050177462 
   45300 0.0051437742 0.0015098192 0.0037602204 
   45400 0.0070156799 0.0017831969 0.0048525569 
   45500 0.0040364584 0.0030657421 0.0048316927 
   45600 0.0064575643 0.0021063914 0.0049315758 
   45700 0.0040162152 0.0026676913 0.0044247855 
   45800 0.0020188385 0.0026272102 0.0035104521 
   45900 0.0038762111 0.0019126674 0.0036085097 
   46000  0.012479561 0.0015045542 0.0069643619 
   46100  0.010349155 0.0027234819 0.0072512371 
   46200 0.0068862981 0.0033586902 0.0063714456 
   46300 0.0073930303  0.003689264 0.0069237147 
   46400 0.0039662647 0.0035568088 0.0052920496 
   46500 0.0055333871 0.0029658599 0.0053867168 
   46600 0.0089900778  0.002643532  0.006576691 
   46700  0.006250084 0.0031845318 0.0059189435 
   46800 0.0081126929 0.0021364284 0.0056857315 
   46900 0.0089325745 0.0022518745 0.0061598758 
   47000 0.0068793162 0.0035565935 0.0065662944 
   47100 0.0061369496 0.0027905611 0.0054754765 
   47200 0.0083706702 0.0022156223 0.0058777905 
   47300 0.0043491429 0.0015776703 0.0034804203 
   47400 0.0035695362 0.0011838599 0.0027455319 
   47500 0.0037547488 0.0017731144  0.003415817 
   47600 0.0020592513 0.0017468804 0.0026478028 
   47700 0.0040994701 0.0011149799 0.0029084981 
   47800 0.0040893447 0.0011418938 0.0029309821 
   47900 0.0089389441 0.0013308142 0.0052416022 
   48000 0.0052877834  0.002092532 0.0044059372 
   48100 0.0048134799 0.0023932094 0.0044991069 
   48200 0.0084967423  0.002118768 0.0058360927 
   48300 0.0029561259 0.0021050402 0.0033983453 
   48400 0.0065775813 0.0026697101  0.005547402 
   48500 0.0041289824 0.0032668651 0.0050732949 
   48600 0.0056618015 0.0033591034 0.0058361415 
   48700 0.0075583034 0.0026018102 0.0059085679 
   48800 0.0076094395 0.0025393132  0.005868443 
   48900 0.0035349632 0.0024664701 0.0040130165 
   49000 0.0041270895 0.0028013394  0.004606941 
   49100 0.0084865684 0.0022740136 0.0059868873 
   49200 0.0058647994 0.0020569552 0.0046228049 
   49300 0.0075960259 0.0014802041 0.0048034654 
   49400 0.0065371381 0.0022024668 0.0050624647 
   49500 0.0019987249 0.0029751923 0.0038496345 
   49600 0.0072259421 0.0028980583  0.006059408 
   49700 0.0082349562  0.002471867 0.0060746603 
   49800 0.0084455943 0.0014611006 0.0051560481 
   49900 0.0081976318 0.0014558855 0.0050423494 
   50000 0.0079081626 0.0021410249  0.005600846 
   50100 0.0047554801 0.0034124691 0.0054929917 
   50200 0.0059409295 0.0034816916 0.0060808482 
   50300 0.0056651117 0.0031185371 0.0055970234 
   50400 0.0030823068 0.0030628483 0.0044113575 
   50500 0.0052877536 0.0022135306 0.0045269228 
   50600 0.0059580959 0.0016061485 0.0042128155 
   50700   0.00322672 0.0018223542 0.0032340442 
   50800 0.0060770737 0.0030135502 0.0056722699 
   50900 0.0043393959 0.0027020603  0.004600546 
   51000  0.003297325 0.0029827718 0.0044253515 
   51100 0.0067154617 0.0028700562 0.0058080707 
   51200 0.0074060174 0.0034468116 0.0066869443 
   51300 0.0083011212 0.0034554799 0.0070872204 
   51400 0.0077103826 0.0032125403 0.0065858327 
   51500 0.0041989232 0.0031135978 0.0049506267 
   51600 0.0073988408 0.0021312568 0.0053682497 
   51700 0.0048624745  0.002798061 0.0049253936 
   51800 0.0039498124 0.0032577849 0.0049858278 
   51900 0.0064003519 0.0030720473 0.0058722013 
   52000 0.0039024717 0.0037106135 0.0054179449 
   52100  0.005369296 0.0042817995 0.0066308666 
   52200 0.0072655014  0.004703653 0.0078823098 
   52300 0.0034685349 0.0048678584 0.0063853424 
   52400 0.0060636563 0.0035883104   0.00624116 
   52500 0.0080939166 0.0032755899 0.0068166784 
   52600 0.0043930835 0.0033233083 0.0052452823 
   52700  0.005107154 0.0024849565 0.0047193364 
   52800 0.0033729948 0.0025718388  0.004047524 
   52900 0.0075594174 0.0023846609  0.005691906 
   53000 0.0062753336 0.0020941762 0.0048396346 
   53100 0.0042293553 0.0023016389 0.0041519819 
   53200 0.0034877073 0.0026647041  0.004190576 
   53300 0.0075286751 0.0021615267 0.0054553221 
   53400 0.0058409536 0.0032171448  0.005772562 
   53500 0.0041703438 0.0030811051 0.0049056305 
   53600 0.0071568575 0.0026831668  0.005814292 
   53700  0.006689528 0.0025890604 0.0055157289 
   53800 0.0031285381 0.0020947048 0.0034634402 
   53900 0.0041368539 0.0023833641 0.0041932377 
   54000 0.0019485859 0.0030935177 0.0039460241 
   54100 0.0033270783 0.0020361346 0.0034917313 
   54200 0.0067622978 0.0011652759 0.0041237812 
   54300 0.0080915757 0.0012424973 0.0047825616 
   54400 0.0041967251 0.0023308972 0.0041669644 
   54500 0.0048705689 0.0016862256 0.0038170995 
   54600 0.0039246386 0.0021001812 0.0038172106 
   54700 0.0068534546 0.0032882776  0.006286664 
   54800  0.007316124 0.0034727076 0.0066735119 
   54900 0.0062773673 0.0041439386 0.0068902868 
   55000 0.0089512365  0.004684943  0.008601109 
   55100 0.0080998076 0.0031095624 0.0066532283 
   55200 0.0077873132 0.0015849825  0.004991932 
   55300 0.0037982591 0.0013729814 0.0030347197 
   55400 0.0035160442 0.0012208109 0.0027590803 
   55500 0.0017369646  0.001355964  0.002115886 
   55600 0.0081819727 0.00083727841 0.0044168914 
   55700 0.0018798311 0.0013948105 0.0022172366 
   55800 0.0028078947 0.0014329111  0.002661365 
   55900  0.005508393 0.0019181894 0.0043281113 
   56000 0.0067293091 0.0016990457 0.0046431184 
   56100 0.0091760088 0.00095336047 0.0049678643 
   56200 0.0052382608 0.0014692263 0.0037609654 
   56300 0.0044993651 0.0015442498 0.0035127221 
   56400 0.0041341097 0.0020853724 0.0038940454 
   56500 0.0038559035 0.0025001719 0.0041871297 
   56600 0.0048641484 0.0032395566 0.0053676215 
   56700 0.0053819815  0.002941074 0.0052956909 
   56800 0.0070483596 0.0032175345 0.0063011919 
   56900 0.0034838437 0.0026215315 0.0041457131 
   57000  0.006024012 0.0019125742 0.0045480795 
   57100 0.0039077475 0.0022021146 0.0039117541 
   57200 0.0062376265 0.0023608037 0.0050897653 
   57300  0.012548436 0.0027553577 0.0082452986 
   57400 0.0075748844 0.0031063091 0.0064203211 
   57500  0.006126214 0.0031800005 0.0058602192 
   57600 0.0094173725 0.0028755986  0.006995699 
   57700 0.0063904682 0.0028889842 0.0056848141 
   57800 0.0035390602 0.0029891551  0.004537494 
   57900 0.0063750619 0.0037618884  0.006550978 
   58000 0.0058732226 0.0041351997 0.0067047346 
   58100 0.0041475333 0.0042088382  0.006023384 
   58200 0.0068870546 0.0041057414 0.0071188278 
   58300  0.004791261 0.0038220576 0.0059182343 
   58400 0.0063610906 0.0029093385 0.0056923156 
   58500  0.001831215 0.0027916568 0.0035928133 
   58600 0.0022491162   0.00265624 0.0036402283 
   58700 0.0077397131  0.002101565 0.0054876894 
   58800 0.0033579269 0.0017547584 0.0032238514 
   58900 0.0054229288 0.0016962596 0.0040687909 
   59000 0.0081519851 0.0016725005  0.005238994 
   59100 0.0048808578 0.0024817905 0.0046171658 
   59200  0.006449116  0.003446768 0.0062682562 
   59300 0.0087202227 0.0031352544 0.0069503519 
   59400 0.0060372587 0.0026142817 0.0052555823 
   59500  0.008700149 0.0021247478  0.005931063 
   59600 0.0047544898 0.0022035978 0.0042836871 
   59700 0.0048067885 0.0017325886 0.0038355585 
   59800 0.0045651901  0.001540877 0.0035381477 
   59900 0.0050219847 0.0022198879 0.0044170061 
   60000 0.0057740846 0.0025957599 0.0051219219 
   60100 0.0073175545 0.0022188524 0.0054202825 
   60200 0.0045009562  0.003181309 0.0051504773 
   60300 0.0040317365 0.0031069258 0.0048708105 
   60400 0.0078434876 0.0014586624 0.0048901883 
   60500 0.0073411328 0.0018004992 0.0050122448 
   60600 0.0037657059 0.0026400734 0.0042875697 
   60700 0.0060791724  0.001105286  0.003764924 
   60800 0.0050343507 0.0012525762 0.0034551046 
   60900 0.0083514135  0.002258543 0.0059122864 
   61000 0.0047636383 0.0020088339 0.0040929256 
   61100 0.0071423614 0.0019023462 0.0050271293 
   61200 0.0044429807 0.0022821304 0.0042259345 
   61300   0.01147542 0.0017531932 0.0067736893 
   61400 0.0084710225 0.0018024481 0.0055085204 
   61500 0.0031838035 0.0016298535 0.0030227675 
   61600 0.0068454985 0.0010965009 0.0040914065 
   61700 0.0063066191 0.00098678709 0.0037459329 
   61800 0.0037075412 0.0015547928 0.0031768421 
   61900 0.0066241183 0.0013255042 0.0042235559 
   62000 0.0056621325 0.0018920279 0.0043692109 
   62100 0.0040434646 0.0029484081 0.0047174238 
   62200 0.0047633807 0.0031054726 0.0051894516 
   62300 0.0062122209  0.002307633 0.0050254796 
   62400 0.0037238563 0.0017482224 0.0033774095 
   62500 0.0048103046 0.0010198415 0.0031243497 
   62600 0.0071303389 0.0011544251 0.0042739484 
   62700 0.0084960441 0.0013942087  0.005111228 
   62800 0.0073921379  0.001776795 0.0050108553 
   62900 0.0047682969 0.0031676455 0.0052537754 
   63000 0.0043408948 0.0024338632 0.0043330047 
   63100 0.0078806627 0.0012048581 0.0046526481 
   63200 0.0040759804 0.0019342045 0.0037174459 
   63300 0.0022934355 0.0021301697 0.0031335478 
   63400 0.0040154431 0.0019736879 0.0037304442 
   63500 0.0032202952 0.0020731735 0.0034820526 
   63600 0.0037775172 0.0013605041 0.0030131678 
   63700 0.0028155473 0.0017702296 0.0030020315 
   63800 0.0048156907 0.0023828101 0.0044896748 
   63900 0.0051885308 0.0015848909 0.0038548731 
   64000 0.0067126955 0.0011009316 0.0040377359 
   64100 0.0048404405 0.0026104992 0.0047281919 
   64200 0.0048873892 0.0030584857 0.0051967185 
   64300 0.0031386517 0.0028223109  0.004195471 
   64400 0.0055055692 0.0013043782 0.0037130647 
   64500 0.0041057136 0.00092023882 0.0027164885 
   64600 0.0030299684 0.0010131687 0.0023387799 
   64700  0.006517256 0.00098280989 0.0038341094 
   64800 0.0048245447 0.0012700039 0.0033807422 
   64900 0.0063585226 0.0021130815 0.0048949351 
   65000 0.0073799031 0.0024027696 0.0056314772 
   65100  0.004421524 0.0022185456 0.0041529624 
   65200 0.0084437705 0.0019654318 0.0056595814 
   65300 0.0075219506 0.0026031364 0.0058939898 
   65400 0.0050339214 0.0035452219 0.0057475625 
   65500 0.0027331256 0.0038801428 0.0050758852 
   65600 0.0031481467  0.003689388 0.0050667022 
   65700 0.0052397498 0.0027735804 0.0050659709 
   65800 0.0038474206 0.0021539682 0.0038372147 
   65900 0.0060119052 0.0013726983 0.0040029068 
   66000 0.0065894393 0.0018991983  0.004782078 
   66100 0.0039814515 0.0026925383 0.0044344233 
   66200  0.010660379 0.0022733613  0.006937277 
   66300 0.0057202079 0.0027647062 0.0052672971 
   66400 0.0069183406  0.003045125  0.006071899 
   66500 0.0065205733 0.0023549135 0.0052076643 
   66600 0.0098815439 0.0018774163 0.0062005918 
   66700 0.0067418653   0.00182397 0.0047735361 
   66800 0.0066001781 0.0013264017 0.0042139797 
   66900 0.0025038493 0.0013809634 0.0024763975 
   67000 0.0028183538  0.001674583 0.0029076128 
   67100  0.002396254 0.0014639041 0.0025122653 
   67200 0.0057908834 0.00079662694 0.0033301384 
   67300 0.0076610365 0.0014114559 0.0047631594 
   67400  0.009393057 0.0023959682 0.0065054306 
   67500 0.0064251944 0.0016871198 0.0044981424 
   67600 0.0049597917  0.002019045 0.0041889538 
   67700 0.0035271227 0.0022561151 0.0037992313 
   67800 0.0081043583 0.0025746338 0.0061202905 
   67900 0.0049733252 0.0020618806 0.0042377104 
   68000 0.0069231408 0.0014995182 0.0045283923 
   68100 0.0055883817 0.0012278917 0.0036728087 
   68200 0.0037699486 0.0016766345  0.003325987 
   68300 0.0086092626 0.0021333393 0.0058998917 
   68400 0.0079968167  0.002003705 0.0055023123 
   68500 0.0031610176 0.0021826087 0.0035655539 
   68600  0.010874093 0.0015415249 0.0062989404 
   68700 0.0031921327 0.00092833082 0.0023248889 
   68800 0.0069405112 0.0012655223 0.0043019959 
   68900  0.003886738 0.0017604969 0.0034609447 
   69000 0.0039994087 0.0011609915 0.0029107329 
   69100 0.0033724353 0.0011440074 0.0026194478 
   69200 0.0048767669 0.0014192066 0.0035527921 
   69300 0.0089735723 0.0016368142 0.0055627521 
   69400 0.0084150824 0.0018635356 0.0055451341 
   69500 0.0048052347 0.0023438342 0.0044461244 
   69600 0.0058648601 0.0026474578 0.0052133341 
   69700  0.002799478 0.0018579371 0.0030827088 
   69800 0.0029076761 0.0012861644 0.0025582727 
   69900  0.006506671 0.0012089972 0.0040556658 
   70000 0.0066126186 0.0021544177 0.0050474383 
   70100 0.0055394628 0.0036624178 0.0060859328 
   70200 0.0076344283 0.0047694516  0.008109514 
   70300 0.0089941383 0.0056168944 0.0095518299 
   70400 0.0086085139 0.0045337846 0.0083000095 
   70500 0.0080445654 0.0031184162 0.0066379135 
   70600 0.0071878208 0.0019648878 0.0051095594 
   70700 0.0069419942 0.0013692176   0.00440634 
   70800 0.0080686471 0.0019186256 0.0054486587 
   70900 0.0039720882 0.0024832964  0.004221085 
   71000 0.0071636958 0.0031339864 0.0062681033 
   71100 0.0067269276 0.0025512909 0.0054943217 
   71200  0.012762293 0.00090750609 0.0064910094 
   71300 0.0039620133 0.00097910989 0.0027124907 
   71400 0.0029450623 0.0010740563 0.0023625211 
   71500 0.0071722217 0.0009963756 0.0041342226 
   71600 0.0066993532   0.00116265  0.004093617 
   71700 0.0049265506 0.0020462378 0.0042016037 
   71800 0.0059232153 0.0021665819 0.0047579886 
   71900 0.0088050574 0.00088275064 0.0047349633 
   72000 0.0048910931 0.0025765895 0.0047164428 
   72100 0.0052702659  0.002446776 0.0047525173 
   72200  0.004394725 0.0017595085 0.0036822006 
   72300 0.0039056217 0.0012992421 0.0030079516 
   72400 0.0064699022 0.00062618775   0.00345677 
   72500 0.0064443691  0.001226015 0.0040454264 
   72600 0.0050972017 0.0015580496 0.0037880753 
   72700 0.0080270112 0.0012632592 0.0047750766 
   72800  0.007123668  0.003045006 0.0061616108 
   72900 0.0048558177 0.0047352332 0.0068596535 
   73000 0.0041192738  0.004367418 0.0061696003 
   73100 0.0093378745 0.0014123109  0.005497631 
   73200 0.0060699178  0.002360305  0.005015894 
   73300 0.0056187874 0.0024161423 0.0048743617 
   73400 0.0049054601 0.0019338057 0.0040799445 
   73500 0.0053501478 0.0023293034  0.004669993 
   73600 0.0082793217 0.0021647462 0.0057869495 
   73700 0.0052686387 0.0029975729 0.0053026024 
   73800 0.0034735853 0.0037211409 0.0052408345 
   73900 0.0051344436 0.0031760772 0.0054223963 
   74000 0.0049987832 0.0015810796 0.0037680472 
   74100 0.0048579178 0.0020060076 0.0041313467 
   74200 0.0043065907 0.0027595386 0.0046436721 
   74300  0.004328284 0.0023475782 0.0042412025 
   74400 0.0041221574 0.0029825244 0.0047859682 
   74500 0.0051291085 0.0028239768 0.0050679618 
   74600 0.0031129062 0.0019173929 0.0032792894 
   74700  0.004211263 0.0022035695  0.004045997 
   74800 0.0037927706 0.0025677002 0.0042270374 
   74900 0.0028684123 0.0023293188 0.0035842492 
   75000 0.0077540847 0.0012133535 0.0046057655 
   75100 0.0039784882 0.0018309745 0.0035715631 
   75200 0.0049836015 0.0022279737 0.0044082993 
   75300 0.0032157707 0.0022455335 0.0036524331 
   75400 0.0059624078 0.0030131268 0.0056216802 
   75500  0.004848776 0.0031172128 0.0052385523 
   75600   0.00703675 0.0015668997 0.0046454778 
   75700 0.0052465141 0.00096480043 0.0032601504 
   75800 0.0027531871 0.0020450343 0.0032495537 
   75900 0.0023165272  0.002548772 0.0035622526 
   76000 0.0051180126  0.002295569 0.0045346995 
   76100 0.0083822871 0.0025611972 0.0062284478 
   76200 0.0039459591 0.0039523621 0.0056787192 
   76300 0.0036661713 0.0043259225 0.0059298725 
   76400 0.0027903222 0.0039465384 0.0051673043 
   76500 0.0083998909 0.0029019878 0.0065769401 
   76600 0.0029380737 0.0028768789 0.0041622861 
   76700 0.0058286155 0.0029508884 0.0055009077 
   76800  0.010134412 0.0015358475 0.0059696527 
   76900 0.0042646366 0.0014073068 0.0032730853 
   77000 0.0053116199 0.0015502083  0.003874042 
   77100  0.002574896 0.0020659526 0.0031924696 
   77200 0.0057637799 0.0016192064 0.0041408601 
   77300 0.0061338731 0.00086760481 0.0035511743 
   77400 0.0088771536  0.001311943 0.0051956977 
   77500 0.0026715586 0.0021275082 0.0032963151 
   77600 0.0032296139 0.0020564475 0.0034694036 
   77700 0.0073169284  0.002235599 0.0054367552 
   77800 0.0059742979 0.0010653699 0.0036791252 
   77900 0.0041432274 0.0012764347 0.0030890967 
   78000 0.0042929835 0.0025119676 0.0043901479 
   78100 0.0051079134 0.0022162316 0.0044509437 
   78200  0.004816719 0.0012509897 0.0033583043 
   78300 0.0049105472 0.0014081939 0.0035565582 
   78400 0.0045170741 0.0021544755 0.0041306954 
   78500 0.0057282206 0.0021203899 0.0046264864 
   78600 0.0035362114 0.0027666931 0.0043137856 
   78700 0.0069980625 0.0022570556 0.0053187079 
   78800 0.0076188906 0.0019115304  0.005244795 
   78900 0.0086978916 0.0018020262 0.0056073538 
   79000 0.0038670974 0.0019362675 0.0036281226 
   79100 0.0047123383 0.0016037577 0.0036654057 
   79200 0.0068966386 0.0017472228 0.0047645021 
   79300 0.0062801394 0.0018988265 0.0046463875 
   79400 0.0054093519 0.0024268244 0.0047934159 
   79500 0.0045297892 0.0020161273 0.0039979101 
   79600 0.0047717255 0.0016889572 0.0037765871 
   79700 0.0051966075 0.0020677926 0.0043413084 
   79800   0.00447857 0.0018895409 0.0038489153 
   79900 0.0058464198  0.001162388 0.0037201967 
   80000 0.0074090774 0.0013922773 0.0046337486 
   80100 0.0080573543 0.0022059373 0.0057310298 
   80200 0.0061339238 0.0031603618 0.0058439535 
   80300 0.0092514659 0.0021583735 0.0062058898 
   80400 0.0055867976 0.0023253054 0.0047695294 
   80500   0.00543286 0.0026582269 0.0050351031 
   80600 0.0049225263 0.0034543825 0.0056079877 
   80700 0.0046325131 0.0037176193 0.0057443438 
   80800 0.0078601632 0.0019136819 0.0053525033 
   80900 0.0024651979 0.0015382304 0.0026167544 
   81000  0.005612259 0.0008751996 0.0033305629 
   81100 0.0065744803 0.00092526878 0.0038016039 
   81200 0.0038791897 0.0015138402 0.0032109857 
   81300 0.0074286561 0.0024018083 0.0056518453 
   81400 0.0056408272 0.0043366222 0.0068044841 
   81500 0.0028597574 0.0050998437 0.0063509876 
   81600 0.0058275832 0.0042237114  0.006773279 
   81700  0.010166486 0.0024277759 0.0068756137 
   81800 0.0048587559 0.0025849517 0.0047106574 
   81900  0.012357886 0.0019427774 0.0073493526 
   82000 0.0071035593 0.0028909377 0.0059987449 
   82100 0.0054428891 0.0033373003 0.0057185643 
   82200 0.0080954377 0.0021475315 0.0056892855 
   82300 0.0046726375 0.0020575802 0.0041018591 
   82400 0.0061756713   0.00201473 0.0047165862 
   82500 0.0022017699 0.0018020504 0.0027653248 
   82600 0.0037013415 0.0019717372 0.0035910742 
   82700 0.0038118385 0.0020736518 0.0037413311 
   82800 0.0065631834 0.0028406341 0.0057120268 
   82900 0.0072423117 0.0019556359 0.0051241473 
   83000 0.0037409794 0.0019317146 0.0035683931 
   83100 0.0028839215 0.0020188767 0.0032805924 
   83200 0.0043202462 0.0018955996 0.0037857073 
   83300 0.0044979151 0.0023093363 0.0042771742 
   83400 0.0037876053 0.0018326457  0.003489723 
   83500 0.0036493864 0.0015031921 0.0030997987 
   83600 0.0050753213 0.0016933545 0.0039138075 
   83700 0.0070423948 0.0016838868 0.0047649346 
   83800 0.0054552311 0.0015944431 0.0039811067 
   83900 0.0024680843 0.0023545815 0.0034343684 
   84000 0.0084863267 0.0018987121 0.0056114801 
   84100 0.0056907515 0.0016872446 0.0041769484 
   84200 0.0042485419 0.0039254974 0.0057842345 
   84300 0.0062260376 0.0034741607 0.0061980521 
   84400 0.0067453551 0.0015896754 0.0045407682 
   84500 0.0055604597 0.0012550796 0.0036877807 
   84600 0.0057533534 0.0010518531 0.0035689452 
   84700 0.0045433069 0.0010279187 0.0030156155 
   84800 0.0058202695 0.0013423468 0.0038887147 
   84900 0.0060270412 0.00070276384 0.0033395944 
   85000 0.0048799734 0.00070750825 0.0028424966 
   85100 0.0036130566 0.0013973959 0.0029781082 
   85200 0.0044594933 0.0018182889 0.0037693172 
   85300 0.0031550797  0.001442801 0.0028231484 
   85400 0.0035949355 0.0009027916 0.0024755759 
   85500 0.0068788188 0.0010223315 0.0040318148 
   85600 0.0066261683 0.0021142267 0.0050131754 
   85700 0.0076090596 0.0026779471 0.0060069107 
   85800 0.0051149157 0.0025317553 0.0047695309 
   85900 0.0020351832 0.0023377843  0.003228177 
   86000 0.0081217333 0.0020932777  0.005646536 
   86100 0.0029861337 0.0025478314 0.0038542649 
   86200  0.004531069 0.0021021022 0.0040844449 
   86300 0.0045281794 0.0017865336  0.003767612 
   86400  0.005182278 0.0019330128 0.0042002594 
   86500 0.0052213122 0.0016898566 0.0039741807 
   86600 0.0040955934 0.0019147053 0.0037065274 
   86700 0.0033079493  0.001853043 0.0033002708 
   86800 0.0074790459 0.0010450005 0.0043170831 
   86900   0.00452167   0.00127924 0.0032574706 
   87000 0.0049682799 0.0013708212 0.0035444437 
   87100 0.0092664653 0.0014388182 0.0054928968 
   87200 0.0050827708 0.0030585774 0.0052822896 
   87300 0.0065283296 0.0027879686 0.0056441128 
   87400  0.002786107 0.0025477271 0.0037666489 
   87500 0.0035261463  0.002145117  0.003687806 
   87600 0.0034669101 0.0025204485 0.0040372216 
   87700  0.005858278 0.0020698764  0.004632873 
   87800 0.0098590674 0.0022518578 0.0065651998 
   87900  0.011089132 0.0019869338 0.0068384289 
   88000  0.011672273 0.0021704782 0.0072770974 
   88100 0.0047180302  0.002371519 0.0044356572 
   88200 0.0043715671 0.0019728014  0.003885362 
   88300 0.0067949303 0.0016081529 0.0045809349 
   88400 0.0067485533 0.0012150907 0.0041675828 
   88500 0.0036283836 0.0014913738 0.0030787917 
   88600 0.0052123695 0.0022766569 0.0045570685 
   88700  0.011221956 0.0017773014  0.006686907 
   88800 0.0036678236 0.0025249506 0.0041296234 
   88900  0.009033826 0.0017859387 0.0057382375 
   89000 0.0070739135 0.0023349337 0.0054297709 
   89100  0.005129254 0.0034599509 0.0057039996 
   89200 0.0076806052 0.0036119843 0.0069722491 
   89300 0.0028246541 0.0029609061 0.0041966923 
   89400 0.0050098298 0.0020278349 0.0042196355 
   89500 0.0046696747 0.0029551887 0.0049981714 
   89600  0.011089488 0.0024850403 0.0073366915 
   89700 0.0068361927 0.0014574609 0.0044482952 
   89800 0.0044676306  0.001554269 0.0035088574 
   89900 0.0067068679  0.001864481 0.0047987357 
   90000  0.004385012 0.0024182152 0.0043366579 
   90100  0.006494639 0.0022751728 0.0051165774 
   90200 0.0026144409 0.0030406907 0.0041845086 
   90300 0.0073280719 0.0029257513 0.0061317828 
   90400 0.0057731651 0.0027454068 0.0052711665 
   90500 0.0070528375 0.0029790404 0.0060646568 
   90600   0.00403588 0.0036622056 0.0054279031 
   90700 0.0053756681 0.0039383735 0.0062902283 
   90800 0.0067818591 0.0023250347 0.0052920981 
   90900 0.0072699599 0.0014609946 0.0046416021 
   91000 0.0030700128 0.0017348916 0.0030780222 
   91100 0.0083783321 0.00096598248 0.0046315028 
   91200 0.0036358965 0.0013425651 0.0029332698 
   91300 0.0042094414 0.0018146729 0.0036563036 
   91400  0.005351166 0.0011921133 0.0035332484 
   91500 0.0041499114 0.00073542495 0.0025510112 
   91600 0.0047872696 0.0014706757 0.0035651061 
   91700  0.004327818 0.0024787864 0.0043722068 
   91800 0.0067114332 0.0019430575 0.0048793095 
   91900 0.0035832879 0.0019216936 0.0034893821 
   92000 0.0087618883 0.0019195701 0.0057528962 
   92100 0.0027333561 0.0029110233 0.0041068666 
   92200   0.00996704 0.0025649798 0.0069255598 
   92300 0.0042149316  0.001679513 0.0035235456 
   92400 0.0029167579 0.0013072859 0.0025833674 
   92500 0.0047355818 0.0014290772 0.0035008943 
   92600 0.0063725435 0.0019132883 0.0047012761 
   92700 0.0048169836 0.0028970042 0.0050044345 
   92800 0.0057667375 0.0028178972 0.0053408449 
   92900 0.0075665655 0.0018983261 0.0052086985 
   93000  0.011660145 0.0023812971 0.0074826105 
   93100 0.0066960783   0.00429777 0.0072273042 
   93200 0.0054373878 0.0034117825 0.0057906397 
   93300 0.0083542408 0.0020745806 0.0057295609 
   93400 0.0039267573 0.0022578687  0.003975825 
   93500 0.0051735211 0.0030858449 0.0053492604 
   93600 0.0082932149 0.0018127041 0.0054409856 
   93700  0.013782948 0.0012614573 0.0072914972 
   93800 0.0043393652 0.0024480319 0.0043465041 
   93900  0.003439548 0.0024674837  0.003972286 
   94000 0.0062651544 0.0018385898 0.0045795949 
   94100 0.0055169535 0.0021965526 0.0046102198 
   94200 0.0047477635 0.0024026216 0.0044797681 
   94300 0.0086805424 0.0030020705 0.0067998078 
   94400 0.0036918493 0.0038175957 0.0054327797 
   94500 0.0080911877 0.0029900294  0.006529924 
   94600 0.0069107867 0.0032097227 0.0062331918 
   94700 0.0056460767 0.0040412718 0.0065114304 
   94800 0.0053278153 0.0043281466 0.0066590658 
   94900 0.0086143565  0.005356365  0.009125146 
   95000 0.0060386397 0.0052951952 0.0079371001 
   95100  0.005047479 0.0039154011 0.0061236732 
   95200 0.0082792283  0.002732388 0.0063545504 
   95300  0.006008401 0.0024121765 0.0050408519 
   95400 0.0064826894 0.0019453166 0.0047814932 
   95500 0.0075451531 0.0018894311 0.0051904356 
   95600 0.0031238209 0.0026177876 0.0039844593 
   95700 0.0029229187 0.0030648971  0.004343674 
   95800 0.0065093203  0.003316351 0.0061641786 
   95900 0.0040097429 0.0036364329 0.0053906954 
   96000 0.0047448413 0.0022968062 0.0043726743 
   96100 0.0038556301 0.0019895912 0.0036764294 
   96200 0.0044939171 0.0023490022 0.0043150909 
   96300 0.0052475592 0.0017496374 0.0040454445 
   96400 0.0058274791 0.0025970993 0.0051466214 
   96500  0.005617878 0.0025549701 0.0050127918 
   96600 0.0016155997 0.0041365391 0.0048433639 
   96700 0.0046636558 0.0043318032 0.0063721526 
   96800 0.0043750249 0.0036251924 0.0055392658 
   96900 0.0069045606 0.0022542904 0.0052750357 
   97000 0.0025387659 0.0023335846 0.0034442947 
   97100 0.0060675575 0.0026215376  0.005276094 
   97200 0.0040072746 0.0022061334  0.003959316 
   97300 0.0058761807 0.0019319863 0.0045028154 
   97400 0.0050441482 0.00087270573 0.0030795206 
   97500 0.0098787761 0.00084880467 0.0051707692 
   97600 0.0029166194 0.0023491171 0.0036251381 
   97700 0.0080375757 0.0026448144 0.0061612538 
   97800 0.0054318262 0.0022654219 0.0046418459 
   97900 0.0044161353 0.0022917991 0.0042238583 
   98000  0.008405175 0.0016561515 0.0053334155 
   98100 0.0056277622 0.0024667681  0.004928914 
   98200 0.0084391231 0.0022405107  0.005932627 
   98300 0.0028031527 0.0017868022 0.0030131815 
   98400 0.0047032863 0.0021567523 0.0042144401 
   98500 0.0045830198 0.0030904308 0.0050955019 
   98600 0.0059010972 0.0020796662 0.0046613962 
   98700 0.0075878493 0.0016145958 0.0049342799 
   98800  0.004767823 0.0015218193 0.0036077419 
   98900 0.0034459234 0.0010760669 0.0025836584 
   99000 0.0042093277 0.0013624008 0.0032039817 
   99100 0.0024331323 0.0017837005 0.0028481959 
   99200 0.0069493428 0.0014613674 0.0045017049 
   99300 0.0063327825 0.0020383633 0.0048089556 
   99400  0.008534423 0.0029526482 0.0066864583 
   99500  0.005025435 0.0032335438 0.0054321717 
   99600 0.0040136314 0.0026245662   0.00438053 
   99700 0.0053381738 0.0029680473 0.0053034983 
   99800 0.0073535477 0.0017355698 0.0049527469 
   99900 0.0045292515 0.00094210079 0.0029236483 
  100000 0.0040115116 0.0013313827 0.0030864191 
  100100 0.0049225788  0.001816368 0.0039699963 
  100200 0.0039261553 0.0019999111  0.003717604 
  100300 0.0082526271 0.0032135872 0.0068241116 
  100400 0.0056140151 0.0046803704  0.007136502 
  100500 0.0088544269 0.0035293314 0.0074031431 
  100600 0.0091541605 0.0015946611 0.0055996064 
  100700  0.012938759 0.0020422699 0.0077029771 
  100800 0.0049284152 0.0026513797 0.0048075613 
  100900 0.0031505517 0.0023848222 0.0037631886 
  101000 0.0072353964 0.0022276875 0.0053931735 
  101100 0.0023793411 0.0035783552 0.0046193169 
  101200 0.0070381976 0.0038194327 0.0068986441 
  101300 0.0093732759 0.0033014876 0.0074022958 
  101400 0.0058533322 0.0034852038 0.0060460367 
  101500  0.010047122 0.0039123492 0.0083079651 
  101600 0.0098340602 0.0054465242 0.0097489255 
  101700  0.010345055 0.0044718193 0.0089977809 
  101800 0.0046439753 0.0034138901 0.0054456293 
  101900 0.0043695934 0.0027989482 0.0047106453 
  102000 0.0051043766 0.0026501047 0.0048832695 
  102100 0.0039856388   0.00177027  0.003513987 
  102200  0.006708501 0.0015212679 0.0044562371 
  102300 0.0036979829 0.0017929211 0.0034107887 
  102400 0.0035048553 0.0018281187 0.0033614929 
  102500 0.0047811284 0.0024990995 0.0045908432 
  102600 0.0074927647   0.00272853 0.0060066146 
  102700  0.005265068 0.0026831923 0.0049866596 
  102800   0.01092889 0.0014120135 0.0061934031 
  102900 0.0040261793  0.001213912 0.0029753654 
  103000 0.0067356515 0.00093121811 0.0038780657 
  103100 0.0037172067 0.0018714695 0.0034977474 
  103200 0.0039624709 0.0022743891 0.0040079701 
  103300 0.0067456251 0.0019867583 0.0049379693 
  103400 0.0060729623 0.0023634331 0.0050203541 
  103500 0.0073258399   0.00241453 0.0056195849 
  103600 0.0046399643 0.0019194021 0.0039493865 
  103700 0.0016757047 0.0016948011 0.0024279219 
  103800  0.005058128 0.0011320433 0.0033449743 
  103900 0.0054409234 0.0010604165 0.0034408205 
  104000 0.0042089447 0.0014204499 0.0032618632 
  104100 0.0044351026 0.0016987224 0.0036390797 
  104200 0.0068785968 0.0021532978 0.0051626838 
  104300 0.0083813857 0.0015658064 0.0052326626 
  104400 0.0033555129 0.0027741163 0.0042421532 
  104500  0.007776915 0.0024137554 0.0058161557 
  104600  0.011491253 0.0018247496  0.006852173 
  104700  0.005644417 0.0020722876 0.0045417201 
  104800 0.0085614623 0.0019122897 0.0056579294 
  104900 0.0067906525 0.0011553268 0.0041262372 
  105000 0.0043260507 0.0017493462 0.0036419933 
  105100 0.0064068859 0.0012562208 0.0040592334 
  105200 0.0069431593 0.0026876442 0.0057252764 
  105300 0.0045434387 0.0022140191 0.0042017735 
  105400 0.0057705221 0.0022111603 0.0047357637 
  105500 0.0064391239  0.002782134 0.0055992507 
  105600 0.0088865046 0.0026802742   0.00656812 
  105700 0.0058577798 0.0034289798 0.0059917584 
  105800   0.00445424 0.0028979357 0.0048466657 
  105900  0.005299812 0.0028315218 0.0051501896 
  106000 0.0058918935 0.0021047548 0.0046824581 
  106100 0.0053491151 0.0012439631  0.003584201 
  106200 0.0062302731 0.00080777958 0.0035335241 
  106300 0.0053855025 0.0011833592 0.0035395165 
  106400 0.0051470357 0.0012296854 0.0034815135 
  106500  0.003371675 0.0011738777 0.0026489856 
  106600 0.0047587529 0.0006028512 0.0026848056 
  106700 0.0046134018 0.0013261817 0.0033445449 
  106800 0.0035769722 0.0017568554 0.0033217808 
  106900 0.0032275242 0.0012842746 0.0026963165 
  107000 0.0042507817 0.0013420899 0.0032018069 
  107100 0.0078495944 0.0016933472 0.0051275447 
  107200 0.0055356798 0.0020393634 0.0044612233 
  107300 0.0037498201  0.002388308 0.0040288543 
  107400 0.0044971693 0.0026253855 0.0045928971 
  107500 0.0055082235 0.0025593593  0.004969207 
  107600 0.0053051993 0.0027218353   0.00504286 
  107700 0.0047215448 0.0029341578 0.0049998336 
  107800 0.0084452419 0.0024539412 0.0061487345 
  107900 0.0061737014  0.002214781 0.0049157754 
  108000 0.0095274091 0.0023519055  0.006520147 
  108100 0.0072032781 0.0026654381 0.0058168723 
  108200 0.0029193483 0.0029505035 0.0042277184 
  108300 0.0047632392 0.0018776754 0.0039615926 
  108400 0.0068335203 0.0022721602 0.0052618254 
  108500 0.0073021891 0.0032063276 0.0064010353 
  108600 0.0027705699 0.0043022656 0.0055143899 
  108700 0.0076356195 0.0035848294 0.0069254129 
  108800 0.0067231113 0.0034839278  0.006425289 
  108900 0.0062958818 0.0030355325 0.0057899808 
  109000 0.0041570557 0.0023247352 0.0041434471 
  109100 0.0059589142 0.0017839119 0.0043909369 
  109200 0.0036926498  0.001879722 0.0034952562 
  109300 0.0049220189 0.0015178466 0.0036712298 
  109400 0.0063065235 0.0018190522 0.0045781562 
  109500 0.0036177025 0.0021529602  0.003735705 
  109600 0.0031200596 0.0018984116 0.0032634377 
  109700 0.0092048992 0.0020330101 0.0060601535 
  109800 0.0080270672 0.0023317069 0.0058435488 
  109900 0.0053515248 0.0032432561 0.0055845482 
  110000 0.0081022497 0.0034662198  0.007010954 
  110100 0.0054469057  0.002567398 0.0049504193 
  110200 0.0047611029 0.0019067514  0.003989734 
  110300 0.0039845112 0.0018086819 0.0035519056 
  110400 0.0031801424 0.0017546617 0.0031459741 
  110500 0.0044952268 0.0019945288 0.0039611905 
  110600 0.0047902998 0.0023584865 0.0044542427 
  110700 0.0057096728 0.0037565668 0.0062545487 
  110800 0.0048567288 0.0037842282  0.005909047 
  110900 0.0065761218 0.0030204181 0.0058974714 
  111000 0.0056355755 0.0033895752 0.0058551395 
  111100 0.0046462521 0.0038357437  0.005868479 
  111200  0.010043254    0.0019883 0.0063822238 
  111300 0.0073208097 0.0020449851 0.0052478394 
  111400 0.0067060202 0.0015691536 0.0045030374 
  111500 0.0043650774 0.0019117443 0.0038214657 
  111600 0.0075469684 0.0010707909 0.0043725896 
  111700 0.0061210742   0.00154704 0.0042250099 
  111800 0.0042675257  0.002333361 0.0042004035 
  111900 0.0031654964 0.0018834558 0.0032683605 
  112000 0.0051402516 0.0011129133 0.0033617734 
  112100 0.0052252716 0.0014668476 0.0037529039 
  112200  0.005003193 0.0011975662 0.0033864631 
  112300 0.0064892239 0.0013072331 0.0041462686 
  112400 0.0033429927 0.0017473916  0.003209951 
  112500 0.0034987299 0.0009563943 0.0024870886 
  112600 0.0042431145 0.0013198528 0.0031762154 
  112700  0.005892914 0.0013302971 0.0039084469 
  112800 0.0030473438   0.00198928 0.0033224929 
  112900 0.0046117719 0.0021805875 0.0041982377 
  113000 0.0039501278 0.0029473059 0.0046754868 
  113100   0.00364422 0.0025688826 0.0041632288 
  113200 0.0082718193 0.0014230446 0.0050419655 
  113300 0.0051170462 0.00058857631  0.002827284 
  113400 0.0031304443 0.0015912083 0.0029607777 
  113500 0.0036535488 0.0017204342 0.0033188618 
  113600 0.0051959771 0.0020373899 0.0043106299 
  113700   0.00838427 0.0023006146 0.0059687328 
  113800 0.0049284715 0.0020203639 0.0041765702 
  113900 0.0044726914 0.0023778663 0.0043346687 
  114000 0.0075649904 0.0028741669 0.0061838502 
  114100 0.0035965251 0.0045448057 0.0061182855 
  114200 0.0044667434 0.0031122107 0.0050664109 
  114300 0.0065320674 0.0019148764 0.0047726559 
  114400 0.0025910207 0.0024876119 0.0036211834 
  114500 0.0077161936 0.0026321868 0.0060080215 
  114600  0.004574071 0.0034352428 0.0054363989 
  114700 0.0089860831 0.0022993401 0.0062307514 
  114800 0.0069344012 0.0015093799 0.0045431804 
  114900 0.0049285769 0.0010988138 0.0032550662 
  115000 0.0066446194 0.00094227714 0.0038492981 
  115100 0.0077524335 0.0014890708 0.0048807604 
  115200 0.0069435617  0.002679461 0.0057172692 
  115300 0.0038411937 0.0037303844 0.0054109066 
  115400 0.0058229111 0.0039008708 0.0064483944 
  115500 0.0054126502 0.0029541146 0.0053221491 
  115600  0.004453715 0.0018084138 0.0037569141 
  115700 0.0050757288 0.0015382945 0.0037589259 
  115800 0.0044407363 0.0027147747 0.0046575969 
  115900 0.0057740146 0.0040194547 0.0065455861 
  116000 0.0073851265 0.0047340524 0.0079650452 
  116100 0.0082552623 0.0030352806 0.0066469578 
  116200 0.0052580922 0.0026447405 0.0049451558 
  116300 0.0055348199 0.0022262691 0.0046477528 
  116400 0.0074653268 0.0013500207 0.0046161012 
  116500 0.0091184654 0.0025486069 0.0065379355 
  116600 0.0079610469 0.0024091721 0.0058921302 
  116700 0.0087977898 0.0017979551 0.0056469881 
  116800 0.0054558652 0.0024834423 0.0048703833 
  116900 0.0038747993 0.0030508001 0.0047460248 
  117000  0.004480955 0.0025302638 0.0044906816 
  117100 0.0053852611 0.0025188715 0.0048749232 
  117200 0.0055071447 0.0039712516 0.0063806274 
  117300 0.0081604354 0.0028133419 0.0063835324 
  117400 0.0060640112 0.0015670845 0.0042200894 
  117500 0.0044314712 0.0018147272 0.0037534959 
  117600 0.0053979428  0.003676041  0.006037641 
  117700 0.0037496817   0.00426108 0.0059015658 
  117800  0.010579516 0.0028665806 0.0074951189 
  117900  0.011528641  0.003815527 0.0088593075 
  118000 0.0050852065 0.0038509056 0.0060756834 
  118100 0.0093487498 0.0040588015 0.0081488796 
  118200 0.0053400428 0.0052433764 0.0075796451 
  118300  0.012650632 0.0044348754 0.0099695267 
  118400 0.0098942465 0.0038493917 0.0081781246 
  118500 0.0036350225 0.0036834148 0.0052737372 
  118600  0.005362479 0.0034198885  0.005765973 
  118700 0.0042909435 0.0037806382  0.005657926 
  118800   0.00942741 0.0023995097 0.0065240016 
  118900 0.0049768321 0.0026246476 0.0048020116 
  119000 0.0040709664  0.003143562 0.0049246098 
  119100 0.0071623577 0.0032441348 0.0063776662 
  119200 0.0078357717 0.0044627968  0.007890947 
  119300 0.0031783205 0.0040721841 0.0054626993 
  119400 0.0087970982 0.0018646021 0.0057133326 
  119500 0.0074604894  0.001331672 0.0045956361 
  119600 0.0030680213 0.0022016745 0.0035439338 
  119700 0.0098876978 0.0023911604 0.0067170282 
  119800 0.0049493537 0.0033878235 0.0055531658 
  119900 0.0061624646   0.00425448 0.0069505582 
  120000 0.0055261267 0.0032598394 0.0056775199 
  120100  0.005963399 0.0024349155 0.0050439026 
  120200  0.005989515  0.001665891 0.0042863039 
  120300 0.0053193978 0.0014817382 0.0038089747 
  120400 0.0037471196 0.0010442753 0.0026836401 
  120500  0.005910341 0.0014884326 0.0040742068 
  120600 0.0062507476 0.0021603451 0.0048950472 
  120700 0.0045882981 0.0021391631 0.0041465435 
  120800 0.0039425932 0.0021389154    0.0038638 
  120900 0.0075029642 0.0022931111  0.005575658 
  121000  0.012006777 0.0026297219  0.007882687 
  121100 0.0049921487 0.0024796863 0.0046637513 
  121200 0.0045873132 0.0030067374 0.0050136869 
  121300  0.004466618 0.0028462786  0.004800424 
  121400  0.010262202 0.0022124971 0.0067022106 
  121500 0.0073571971 0.0018768862 0.0050956599 
  121600 0.0089165834 0.0030870194 0.0069880247 
  121700 0.0070287129 0.0048058229 0.0078808848 
  121800  0.004432623 0.0040145778 0.0059538504 
  121900 0.0067791268  0.002085177 0.0050510449 
  122000 0.0082905502 0.0014117822  0.005038898 
  122100 0.0060001641 0.0030889146 0.0057139864 
  122200 0.0059622491  0.003387524  0.005996008 
  122300 0.0076276341 0.0021117033 0.0054487932 
  122400 0.0051026416 0.0016965803  0.003928986 
  122500 0.0043012863 0.0018779492 0.0037597619 
  122600 0.0058034922 0.0033042874 0.0058433152 
  122700 0.0019990528 0.0035498008 0.0044243863 
  122800 0.0025253969 0.0021227996 0.0032276608 
  122900 0.0073842025 0.0011939182 0.0044245068 
  123000 0.0047685407 0.0010509283 0.0031371648 
  123100 0.0074460853 0.0012351769 0.0044928392 
  123200 0.0025676589 0.0015507469 0.0026740977 
  123300 0.0052041152 0.0011034015 0.0033802019 
  123400 0.0046935597 0.0013601677 0.0034136001 
  123500 0.0031015273 0.0027970392 0.0041539574 
  123600 0.0019222272 0.0017350426  0.002576017 
  123700 0.0063149152 0.0016116542 0.0043744296 
  123800 0.0032715438 0.0024111947 0.0038424951 
  123900 0.0056418769 0.0024384401 0.0049067613 
  124000 0.0077231075 0.0019287853 0.0053076449 
  124100  0.003809381 0.0026131374 0.0042797416 
  124200 0.0042704296 0.0028248791  0.004693192 
  124300 0.0099157053 0.0013200438 0.0056581648 
  124400 0.0059331498 0.0017470368 0.0043427899 
  124500 0.0060837691 0.0018015131  0.004463162 
  124600 0.0057818603 0.0019233589 0.0044529228 
  124700 0.0072778481 0.0037811773 0.0069652359 
  124800 0.0094123406 0.0038733692 0.0079912682 
  124900 0.0072817129 0.0024257384 0.0056114878 
  125000 0.0048018526 0.0020948598 0.0041956703 
  125100 0.0040687595 0.0014695974 0.0032496796 
  125200 0.0033776482 0.0015512055 0.0030289266 
  125300 0.0058749589 0.0019034832 0.0044737777 
  125400 0.0047761012 0.0024291819 0.0045187262 
  125500 0.0035761531 0.0028201781 0.0043847451 
  125600 0.0081843259 0.0014118996 0.0049925422 
  125700 0.0056989605 0.0015374127 0.0040307079 
  125800  0.003927583 0.0020856857 0.0038040033 
  125900 0.0037673421 0.0020974535 0.0037456657 
  126000 0.0062422665 0.0014733924  0.004204384 
  126100 0.0061068968  0.002055348 0.0047271153 
  126200 0.0068876835 0.0025569704 0.0055703319 
  126300 0.0079320916 0.0028300279 0.0063003179 
  126400 0.0039681843 0.0034078741 0.0051439547 
  126500 0.0061222637 0.0020460902 0.0047245805 
  126600 0.0082563692 0.0011840879 0.0047962494 
  126700  0.003677809 0.0017230798 0.0033321213 
  126800 0.0037344117 0.00083614076 0.0024699459 
  126900 0.0027658346 0.00074913379 0.0019591864 
  127000 0.0033637007 0.00087023784 0.0023418569 
  127100 0.0047500594 0.00052814336 0.0026062943 
  127200 0.0044167435 0.00099559566  0.002927921 
  127300  0.005565834 0.0012839841 0.0037190364 
  127400 0.0053760097 0.0012912746 0.0036432788 
  127500 0.0058249614 0.0013429466 0.0038913672 
  127600 0.0057655702 0.0018689036 0.0043913406 
  127700 0.0068354106 0.0015934108  0.004583903 
  127800 0.0039562516 0.0012929861 0.0030238462 
  127900  0.005839821 0.00077774045 0.0033326622 
  128000 0.0037266232 0.0012400124   0.00287041 
  128100 0.0045845069 0.0016828755 0.0036885973 
  128200 0.0045115389 0.0023410201 0.0043148184 
  128300 0.0040241503 0.0025755085 0.0043360742 
  128400  0.005290318 0.0017783247 0.0040928389 
  128500 0.0032376807 0.0015255913 0.0029420766 
  128600  0.006174176 0.0015008937 0.0042020956 
  128700 0.0073271393  0.001686247 0.0048918704 
  128800 0.0022757881  0.002297693 0.0032933503 
  128900 0.0037176694 0.0022860982 0.0039125785 
  129000 0.0081780464 0.0021533004 0.0057311956 
  129100 0.0075454802 0.0015849475 0.0048860951 
  129200 0.0068992608  0.001265594 0.0042840206 
  129300 0.0078421767 0.0013405568 0.0047715091 
  129400 0.0067813785 0.0033564788 0.0063233319 
  129500  0.006871037 0.0044373885 0.0074434672 
  129600 0.0063086825 0.0027024433 0.0054624919 
  129700 0.0072684871 0.0013440121 0.0045239752 
  129800 0.0064288039 0.0019258253  0.004738427 
  129900 0.0079436566 0.0022938545 0.0057692042 
  130000 0.0057364876 0.0020398346 0.0045495479 
  130100 0.0068284147 0.0018231804 0.0048106118 
  130200 0.0049984461 0.0027514575 0.0049382777 
  130300  0.004025995 0.0020823922  0.003843765 
  130400 0.0033084881 0.0017878389 0.0032353024 
  130500 0.0056094709 0.0018210663 0.0042752099 
  130600 0.0069417237 0.0017935078 0.0048305119 
  130700  0.003917143 0.0031893867 0.0049031368 
  130800 0.0041447587 0.0044564281 0.0062697601 
  130900 0.0058643086 0.0033281591 0.0058937941 
  131000 0.0067014979 0.0018277174 0.0047596228 
  131100 0.0027685005 0.0021472943 0.0033585133 
  131200  0.004932311 0.0019402485 0.0040981346 
  131300 0.0082956823 0.0022795294 0.0059088904 
  131400 0.0038120058 0.0024698779 0.0041376304 
  131500 0.0057524866 0.0014436855 0.0039603984 
  131600 0.0074782649 0.0018123478 0.0050840887 
  131700 0.0070216058 0.0020535717 0.0051255243 
  131800 0.0032645808 0.0015843802 0.0030126342 
  131900 0.0042952772 0.0016033946 0.0034825784 
  132000 0.0058635518 0.00084686221 0.0034121661 
  132100 0.0059560355  0.001924293 0.0045300585 
  132200 0.0026911133 0.0028177094 0.0039950715 
  132300 0.0060891577 0.0031141467 0.0057781532 
  132400 0.0075532209 0.0027698552 0.0060743893 
  132500 0.0084310546 0.00073628176 0.0044248682 
  132600 0.0032842093 0.0012677723 0.0027046139 
  132700 0.0036798948 0.0021408278 0.0037507818 
  132800 0.0048344734 0.0018896328 0.0040047149 
  132900 0.0044705063 0.0012060148 0.0031618613 
  133000 0.0074371211 0.0012768203 0.0045305608 
  133100 0.0065631516 0.0019171727 0.0047885515 
  133200 0.0024185497 0.0019352528 0.0029933683 
  133300 0.0061217023 0.0016739123 0.0043521571 
  133400 0.0053768641 0.0013224884 0.0036748664 
  133500 0.0036873849 0.00059474599 0.0022079769 
  133600 0.0049317836 0.00065815274 0.0028158081 
  133700 0.0033042153 0.0019325993 0.0033781935 
  133800 0.0042405361 0.0025255947 0.0043808293 
  133900 0.0059844275 0.0018408173 0.0044590043 
  134000 0.0037143714  0.002434187 0.0040592244 
  134100 0.0059393257  0.001962202  0.004560657 
  134200 0.0077046348  0.003035509 0.0064062867 
  134300 0.0094770045 0.0043390214 0.0084852109 
  134400 0.0062475433 0.0040267569 0.0067600571 
  134500 0.0052260732 0.0036670919 0.0059534989 
  134600 0.0077629171 0.0023072906 0.0057035669 
  134700 0.0028227417 0.0031839562 0.0044189057 
  134800  0.003555425 0.0029032084 0.0044587069 
  134900 0.0042709607 0.0026040156 0.0044725609 
  135000 0.0062481746 0.0020447927 0.0047783691 
  135100 0.0059006899 0.0026823497 0.0052639015 
  135200 0.0065605901 0.0030168271 0.0058870853 
  135300 0.0020679521   0.00261594  0.003520669 
  135400 0.0045270236 0.0018948351 0.0038754079 
  135500 0.0042871284 0.0020141068 0.0038897255 
  135600 0.0038195526 0.0027854397  0.004456494 
  135700 0.0085982926 0.0026133551 0.0063751081 
  135800 0.0070609515 0.0029374032 0.0060265695 
  135900 0.0070606035 0.0028692502 0.0059582643 
  136000 0.0078827303 0.0029170119 0.0063657064 
  136100 0.0056825214 0.0037007565 0.0061868596 
  136200 0.0050741311 0.0028386905 0.0050586228 
  136300  0.008376636 0.0023860234 0.0060508017 
  136400 0.0040429284 0.0027729819 0.0045417631 
  136500 0.0064540406 0.0022633467 0.0050869895 
  136600 0.0034564499 0.0021997689 0.0037119658 
  136700 0.0037985177 0.0021732546  0.003835106 
  136800 0.0068223293 0.0014614615 0.0044462306 
  136900  0.006796628 0.0018192362 0.0047927609 
  137000 0.0076440227 0.0029295849 0.0062738448 
  137100 0.0061246302 0.0026346316 0.0053141573 
  137200  0.006779767 0.0023772785 0.0053434266 
  137300  0.006129949 0.0022512458 0.0049330984 
  137400 0.0060901704 0.0030767128 0.0057411623 
  137500 0.0099762719 0.0027166848 0.0070813037 
  137600 0.0072950119 0.0030551355 0.0062467033 
  137700 0.0050893067 0.0040604764 0.0062870481 
  137800 0.0046503291 0.0037023268 0.0057368458 
  137900 0.0069601217 0.0024387322 0.0054837855 
  138000 0.0079982686  0.003078439 0.0065776815 
  138100  0.008561569 0.0026670631 0.0064127495 
  138200 0.0035973732 0.0023014567 0.0038753075 
  138300 0.0079192368 0.0024602957 0.0059249619 
  138400 0.0058214772 0.0032080029 0.0057548992 
  138500 0.0066448115  0.002929728  0.005836833 
  138600 0.0054172621 0.0017854676 0.0041555198 
  138700  0.005075271 0.0012497159  0.003470147 
  138800 0.0057802204  0.001391789 0.0039206354 
  138900 0.0036189746 0.0018783326  0.003461634 
  139000 0.0048019936 0.0011206033 0.0032214755 
  139100  0.010754931 0.0020467064 0.0067519888 
  139200 0.0055960279 0.0025275726 0.0049758348 
  139300  0.005112924 0.0017061936 0.0039430978 
  139400 0.0060271479 0.0016827656 0.0043196428 
  139500 0.0059031185  0.001417848 0.0040004623 
  139600 0.0060948872  0.002203315 0.0048698282 
  139700 0.0041518304 0.0021512814 0.0039677072 
  139800 0.0064771898 0.0015805727 0.0044143432 
  139900 0.0059053767 0.0012387077   0.00382231 
  140000 0.0058108982 0.00097068483 0.0035129528 
  140100 0.0027302504 0.0010855895  0.002280074 
  140200 0.0032364609 0.00092445401 0.0023404057 
  140300 0.0030273039  0.001109811 0.0024342565 
  140400 0.0067235323 0.0013568222 0.0042983676 
  140500 0.0051961275  0.001452895 0.0037262008 
  140600 0.0053233869  0.001539471 0.0038684527 
  140700 0.0039129812 0.0016011447  0.003313074 
  140800 0.0052006572 0.0019329762 0.0042082637 
  140900 0.0029242464 0.0029485506 0.0042279084 
  141000 0.0085212482 0.0031539954 0.0068820415 
  141100 0.0069108039 0.0043316236 0.0073551003 
  141200  0.010070036 0.0046965956 0.0091022363 
  141300 0.0042170415 0.0041115907 0.0059565464 
  141400 0.0032350408 0.0042889988 0.0057043292 
  141500 0.0067728069 0.0031277945 0.0060908975 
  141600 0.0069223414 0.0023929134 0.0054214377 
  141700 0.0084428731 0.0022542485 0.0059480055 
  141800 0.0047481416 0.0017662274 0.0038435394 
  141900  0.002894415 0.0018236312 0.0030899378 
  142000 0.0072215027  0.002360463 0.0055198704 
  142100 0.0059998776 0.0031326178 0.0057575643 
  142200 0.0075577223 0.0013486056 0.0046551091 
  142300 0.0033138435 0.0014999651 0.0029497717 
  142400 0.0025488535  0.001346233 0.0024613564 
  142500 0.0042686219 0.0018336834 0.0037012055 
  142600 0.0055480691 0.0017501448  0.004177425 
  142700 0.0028919159 0.0016641435 0.0029293567 
  142800 0.0029971359 0.0022952984 0.0036065453 
  142900 0.0038441993 0.0030481205 0.0047299577 
  143000  0.006525988 0.0021215618 0.0049766816 
  143100  0.010902067 0.0021200651 0.0068897195 
  143200 0.0058080278 0.0035594877 0.0061004998 
  143300 0.0057798721 0.0024907069 0.0050194009 
  143400 0.0055400507 0.0018315527 0.0042553249 
  143500 0.0051979167 0.0021064451 0.0043805336 
  143600  0.007194247 0.0022959796 0.0054434627 
  143700 0.0094969897  0.003176022 0.0073309549 
  143800 0.0052478457 0.0031179434 0.0054138759 
  143900 0.0067249079  0.003003155 0.0059453022 
  144000 0.0045290124 0.0023716486 0.0043530915 
  144100 0.0052598032 0.0020393409 0.0043405048 
  144200  0.004128734 0.0022795133 0.0040858344 
  144300 0.0086318062 0.0016658823 0.0054422975 
  144400 0.0051408346 0.0022998949   0.00454901 
  144500 0.0052480926 0.0029192471 0.0052152876 
  144600 0.0072067514 0.0025097144 0.0056626681 
  144700 0.0064998079 0.0023323255 0.0051759914 
  144800 0.0023820505  0.003965117 0.0050072641 
  144900 0.0023814541 0.0037316014 0.0047734876 
  145000 0.0089644805 0.0026589629 0.0065809231 
  145100 0.0056908387 0.0031328327 0.0056225746 
  145200 0.0045233467 0.0022234099 0.0042023741 
  145300 0.0063700638 0.0015402299 0.0043271328 
  145400  0.003264464 0.0016809183 0.0031091213 
  145500 0.0018436934  0.001889685 0.0026963009 
  145600 0.0049257725 0.0017401732 0.0038951987 
  145700 0.0024708418  0.001832031 0.0029130243 
  145800 0.0067708967 0.0019384282 0.0049006955 
  145900 0.0050150756  0.003206548 0.0054006435 
  146000 0.0086432192 0.0029037496  0.006685158 
  146100  0.002367792 0.0029814771 0.0040173861 
  146200 0.0021838746 0.0024463496 0.0034017948 
  146300 0.0021779573 0.0026256993 0.0035785556 
  146400 0.0044668525 0.0027803777 0.0047346257 
  146500 0.0093175329 0.0038405043 0.0079169249 
  146600 0.0033245825 0.0059547491 0.0074092539 
  146700  0.006821798 0.0045958422 0.0075803789 
  146800 0.0099243365 0.0031846349 0.0075265321 
  146900 0.0057861968 0.0021690881 0.0047005492 
  147000 0.0053050089 0.0017752342 0.0040961756 
  147100  0.006797418 0.0014828912 0.0044567615 
  147200 0.0044645165 0.0012730129 0.0032262388 
  147300 0.0049089138 0.0011933744 0.0033410242 
  147400 0.0070061536 0.0022552044 0.0053203966 
  147500 0.0014833814 0.0032467401 0.0038957194 
  147600 0.0064982101 0.0034860347 0.0063290017 
  147700 0.0074424644 0.0022571104 0.0055131886 
  147800 0.0067883015 0.0017261281   0.00469601 
  147900 0.0078619285  0.002317946 0.0057575397 
  148000 0.0043820266 0.0034208483  0.005337985 
  148100  0.008126444 0.0023974777 0.0059527969 
  148200 0.0043117873 0.0017777137 0.0036641206 
  148300 0.0049655487 0.0018397788 0.0040122063 
  148400 0.0046065302  0.001793598  0.003808955 
  148500 0.0048205159 0.0017941797 0.0039031554 
  148600 0.0069559166 0.00086190661 0.0039051201 
  148700 0.0066172638 0.0018583445 0.0047533975 
  148800    0.0049725 0.0016333488 0.0038088176 
  148900  0.006659756 0.0012350435 0.0041486867 
  149000 0.0064817252 0.0025656833  0.005401438 
  149100  0.003481146  0.003025828 0.0045488294 
  149200 0.0065544963 0.0026472116 0.0055148038 
  149300 0.0058244324 0.0017099408 0.0042581299 
  149400 0.0028994159 0.0017941717 0.0030626661 
  149500 0.0037355048 0.0016217404 0.0032560237 
  149600 0.0039703927 0.0015120448 0.0032490916 
  149700 0.0017947163 0.0018117288 0.0025969172 
  149800 0.0062066625 0.0017530968 0.0044685116 
  149900 0.0052123254 0.0024581918 0.0047385842 
  150000 0.0046050178 0.0021813423 0.0041960376 
  150100 0.0059511367 0.0015041995 0.0041078218 
  150200 0.0037196356 0.0013485126 0.0029758532 
  150300 0.0064636478 0.0011641574 0.0039920033 
  150400 0.0043125932 0.0014206624 0.0033074219 
  150500 0.0047357411 0.0025490565 0.0046209432 
  150600 0.0053796479 0.0028409076 0.0051945036 
  150700 0.0069162863 0.0021265494 0.0051524247 
  150800 0.0043025228 0.0012821592  0.003164513 
  150900 0.0037618292 0.0014393412 0.0030851414 
  151000 0.0082383792 0.0013699904 0.0049742813 
  151100 0.0061384632 0.0013104482 0.0039960259 
  151200 0.0053513452  0.001550072 0.0038912855 
  151300 0.0027379139 0.0019669068 0.0031647441 
  151400 0.0055983027 0.0020446479 0.0044939054 
  151500 0.0049151205 0.0017481298  0.003898495 
  151600 0.0059933555 0.0010670895 0.0036891825 
  151700 0.0054932105 0.0016830056 0.0040862852 
  151800 0.0071033496  0.001033517 0.0041412324 
  151900 0.0035580578 0.0013126413 0.0028692916 
  152000 0.0083812844 0.0010372074 0.0047040193 
  152100 0.0030375603 0.0017126006 0.0030415333 
  152200 0.0042395125  0.001640818 0.0034956048 
  152300  0.002784903  0.001895943 0.0031143381 
  152400 0.0066789323 0.0020164407 0.0049384735 
  152500 0.0063251799 0.0024020102 0.0051692764 
  152600  0.004112258 0.0025063544 0.0043054673 
  152700  0.008028225 0.0016209089 0.0051332574 
  152800  0.004582176 0.0012984712 0.0033031732 
  152900 0.0032286411 0.0010407139 0.0024532444 
  153000 0.0039566212 0.0015184806 0.0032495024 
  153100 0.0049855476 0.0011626074 0.0033437844 
  153200 0.0044502464  0.001068076 0.0030150588 
  153300 0.0039292828 0.0014393084 0.0031583696 
  153400 0.0050592683 0.0015030754 0.0037165053 
  153500  0.005574814 0.00090575705 0.0033447382 
  153600 0.0065790232 0.0021553787 0.0050337013 
  153700 0.0064893514 0.0023759677  0.005215059 
  153800 0.0042443945 0.0023577335  0.004214656 
  153900 0.0037465393  0.002462319   0.00410143 
  154000 0.0046031432 0.0017648931 0.0037787683 
  154100 0.0027354864 0.0023518743 0.0035486495 
  154200 0.0050513591 0.0024747379 0.0046847075 
  154300 0.0097696072  0.001337661 0.0056118642 
  154400 0.0037112845 0.0011227643 0.0027464513 
  154500 0.0061553647 0.0018526402 0.0045456123 
  154600 0.0051484369 0.0023747327 0.0046271739 
  154700 0.0091854513  0.003015693  0.007034328 
  154800  0.011774131 0.0032646404 0.0084158226 
  154900 0.0071814071 0.0027671217 0.0059089873 
  155000 0.0089768009 0.0010902942 0.0050176446 
  155100 0.0044835187 0.0017883198 0.0037498592 
  155200 0.0064389362  0.002493526 0.0053105606 
  155300 0.0031545036 0.0037238556 0.0051039509 
  155400 0.0052352718 0.0034132458 0.0057036772 
  155500 0.0064202467 0.0019737881  0.004782646 
  155600 0.0084935152 0.0024297492 0.0061456621 
  155700 0.0043100799 0.0032459847 0.0051316446 
  155800 0.0075217678 0.0037690944 0.0070598678 
  155900 0.0028482157 0.0050146628 0.0062607572 
  156000 0.0068621079 0.0050587498  0.008060922 
  156100 0.0053500476 0.0036200945 0.0059607403 
  156200 0.0059743601   0.00358732 0.0062011026 
  156300 0.0037486482 0.0028753674  0.004515401 
  156400  0.005271358  0.002110898 0.0044171171 
  156500 0.0082421524 0.0027449817 0.0063509234 
  156600 0.0031981261 0.0057136591 0.0071128393 
  156700 0.0039508948 0.0053981697 0.0071266862 
  156800 0.0090667488 0.0030732269 0.0070399295 
  156900 0.0077793374 0.0026191613 0.0060226214 
  157000 0.0041638895 0.0017908585 0.0036125601 
  157100 0.0042410567 0.0025201201 0.0043755824 
  157200 0.0054200495 0.0027567621 0.0051280338 
  157300 0.0078735593 0.0020888874 0.0055335696 
  157400 0.0088770203 0.0015196984 0.0054033948 
  157500  0.005075458 0.0027771575 0.0049976704 
  157600 0.0080943431 0.0023908725 0.0059321477 
  157700 0.0024685087 0.0018562894  0.002936262 
  157800 0.0012007715 0.0020362751 0.0025616126 
  157900 0.0047393458 0.0017368958 0.0038103596 
  158000  0.004512879 0.0019098509 0.0038842355 
  158100 0.0061937711 0.0024037309 0.0051135058 
  158200 0.0028711683 0.0025869852 0.0038431213 
  158300 0.0064751596 0.0018391992 0.0046720815 
  158400 0.0068153808  0.002629145 0.0056108741 
  158500 0.0057930407 0.0035610845 0.0060955398 
  158600  0.005065168 0.0032915133 0.0055075243 
  158700 0.0073773857 0.0013162556 0.0045438618 
  158800 0.0058702907  0.001011827 0.0035800791 
  158900 0.0055647544 0.0017986439  0.004233224 
  159000 0.0027819529  0.001752721 0.0029698254 
  159100 0.0061158483 0.0011696148 0.0038452984 
  159200 0.0043949799 0.0019165571 0.0038393608 
  159300 0.0073118605 0.0029318827 0.0061308216 
  159400 0.0036587217 0.0024232553  0.004023946 
  159500 0.0070124731 0.0017299102 0.0047978672 
  159600 0.0059976809 0.0022066873 0.0048306727 
  159700 0.0029401793 0.0028896942 0.0041760227 
[...]
 1460500   0.00598735 0.0023403748 0.0049598404 
 1460600 0.0056491206 0.0018005557 0.0042720459 
 1460700 0.0018054225 0.0024926401 0.0032825125 
 1460800 0.0042359124 0.0027018897 0.0045551013 
 1460900 0.0067102908 0.0026283012 0.0055640535 
 1461000  0.011015545  0.002310662 0.0071299629 
 1461100  0.005240094  0.002717776 0.0050103171 
 1461200 0.0071509388 0.0036698567 0.0067983924 
 1461300 0.0046905915 0.0026418417 0.0046939754 
 1461400 0.0043123661 0.0024366561 0.0043233163 
 1461500 0.0061640878 0.0022974732 0.0049942616 
 1461600 0.0038156065 0.0022612529 0.0039305807 
 1461700 0.0067302473 0.0020075712 0.0049520544 
 1461800 0.0035344534 0.0029245637 0.0044708871 
 1461900 0.0093419937 0.0018242383 0.0059113606 
 1462000 0.0041512402 0.0011956692 0.0030118368 
 1462100 0.0035016449 0.0013000914 0.0028320611 
 1462200 0.0056124821 0.0020763333 0.0045317942 
 1462300 0.0071447484 0.0024478451 0.0055736725 
 1462400 0.0048023274 0.0030374474 0.0051384656 
 1462500 0.0062019166  0.001708797 0.0044221355 
 1462600 0.0084915569 0.0010418372 0.0047568933 
 1462700 0.0067024852 0.0016340507  0.004566388 
 1462800 0.0084527114 0.0012825818  0.004980643 
 1462900  0.010457006  0.001306573 0.0058815129 
 1463000 0.0049933726  0.002238614 0.0044232145 
 1463100 0.0045354204 0.0028165816  0.004800828 
 1463200 0.0093055918 0.0027221881 0.0067933845 
 1463300  0.010035151  0.002428615 0.0068189936 
 1463400 0.0040274637 0.0029669505 0.0047289659 
 1463500 0.0030178111 0.0035911681 0.0049114604 
 1463600 0.0066435851 0.0022540309 0.0051605994 
 1463700 0.0066258387  0.001601555 0.0045003594 
 1463800 0.0089118581 0.0015769207 0.0054758586 
 1463900 0.0037295525 0.0021874088 0.0038190881 
 1464000 0.0091098964 0.0015760054 0.0055615851 
 1464100 0.0056651473 0.0018548994 0.0043334014 
 1464200 0.0065560666 0.0018162912 0.0046845704 
 1464300 0.0036631499 0.0017079113 0.0033105393 
 1464400 0.0048392661 0.0019370691  0.004054248 
 1464500 0.0029380003 0.0017413912 0.0030267663 
 1464600  0.010102587 0.0013954574 0.0058153394 
 1464700 0.0086979693 0.0012705672 0.0050759288 
 1464800 0.0074246205 0.00098984139 0.0042381128 
 1464900 0.0080863142  0.001829307 0.0053670695 
 1465000 0.0022543023 0.0033085728 0.0042948301 
 1465100 0.0037245342 0.0033562975 0.0049857812 
 1465200 0.0070016624 0.0023749893 0.0054382167 
 1465300 0.0071631931 0.0017399615 0.0048738585 
 1465400 0.0054738524 0.0022224836  0.004617294 
 1465500 0.0032726022 0.0017846142 0.0032163776 
 1465600 0.0016864062 0.0019720609 0.0027098636 
 1465700 0.0080289377 0.0022481863 0.0057608466 
 1465800 0.0035544091 0.0022693397 0.0038243937 
 1465900 0.0040596728 0.0027660859 0.0045421927 
 1466000 0.0086907346 0.0031163647 0.0069185611 
 1466100 0.0042681284 0.0050438366 0.0069111427 
 1466200 0.0042239396 0.0044347322 0.0062827057 
 1466300 0.0024213713 0.0039472698 0.0050066197 
 1466400 0.0063761686 0.0025041463 0.0052937201 
 1466500 0.0063647216 0.0023018065 0.0050863722 
 1466600 0.0078524204 0.0022784262 0.0057138601 
 1466700 0.0068148849 0.0019789363 0.0049604484 
 1466800 0.0069146199 0.0022734464 0.0052985926 
 1466900 0.0033491211  0.002581039 0.0040462795 
 1467000 0.0043096831 0.0024239423 0.0043094287 
 1467100 0.0072602925   0.00213079  0.005307168 
 1467200 0.0055911935  0.001792433 0.0042385802 
 1467300 0.0040254527 0.0017471803 0.0035083158 
 1467400 0.0082428841 0.0014277744 0.0050340362 
 1467500 0.0042475258 0.0021280595  0.003986352 
 1467600 0.0037583114 0.0022776101 0.0039218713 
 1467700 0.0066823983 0.0010433473 0.0039668965 
 1467800 0.0020936587 0.0015385159 0.0024544915 
 1467900 0.0046421362 0.0007611747 0.0027921093 
 1468000 0.0063530116 0.00078646593 0.0035659085 
 1468100 0.0056260753 0.0015659441  0.004027352 
 1468200 0.0055887612 0.0016432296 0.0040883126 
 1468300 0.0075092857 0.0016731537 0.0049584662 
 1468400 0.0087494456 0.0017362797 0.0055641622 
 1468500 0.0061155521 0.0013271419 0.0040026959 
 1468600  0.004948645 0.0012987323 0.0034637645 
 1468700 0.0063319675 0.0013703662 0.0041406019 
 1468800 0.0066314207 0.0021206132 0.0050218598 
 1468900 0.0039623227 0.0025039545 0.0042374707 
 1469000 0.0060440373  0.002111605 0.0047558714 
 1469100 0.0073313034 0.00094339058 0.0041508358 
 1469200 0.0065467818 0.0014048933 0.0042691104 
 1469300 0.0040862826 0.0024468929 0.0042346416 
 1469400 0.0058874601 0.0020187487 0.0045945125 
 1469500 0.0053859589 0.0028268846 0.0051832416 
 1469600 0.0045057391 0.0018490042  0.003820265 
 1469700 0.0081371625 0.0020569586 0.0056169672 
 1469800 0.0059824447 0.0033019882 0.0059193078 
 1469900 0.0051217865 0.0034377394  0.005678521 
 1470000  0.004423957 0.0028906255 0.0048261067 
 1470100 0.0030818761 0.0040084591 0.0053567799 
 1470200  0.002948578 0.0027150195 0.0040050224 
 1470300 0.0055149767  0.001871986 0.0042847883 
 1470400 0.0067905516 0.0017419056  0.004712772 
 1470500  0.004972096 0.0022417947 0.0044170867 
 1470600 0.0042419336 0.0017616921  0.003617538 
 1470700 0.0035604194 0.0012793191 0.0028370026 
 1470800 0.0029160956 0.0014816424 0.0027574342 
 1470900 0.0082961857 0.0020153906 0.0056449719 
 1471000 0.0049708887 0.0027223095 0.0048970733 
 1471100 0.0080451117 0.0019490606 0.0054687969 
 1471200 0.0074550955 0.0031238708 0.0063854751 
 1471300 0.0056946113 0.0027627626  0.005254155 
 1471400  0.006388928 0.0023015371 0.0050966931 
 1471500 0.0063075015 0.0024765236 0.0052360555 
 1471600 0.0042544957 0.0026853911  0.004546733 
 1471700 0.0084774785 0.0020927771  0.005801674 
 1471800 0.0040020944 0.0032789085 0.0050298248 
 1471900 0.0089888126 0.0027449884 0.0066775939 
 1472000 0.0041917249 0.0026250485 0.0044589281 
 1472100 0.0061048271 0.0023682744 0.0050391363 
 1472200 0.0019583922 0.0026010011 0.0034577976 
 1472300 0.0065120166 0.0030962975 0.0059453048 
 1472400 0.0071506596 0.0030456911 0.0061741047 
 1472500 0.0075259251 0.0022026292 0.0054952214 
 1472600  0.004835518 0.0019072394 0.0040227785 
 1472700 0.0041464553 0.0014174444 0.0032315186 
 1472800 0.0064346667 0.0016343856 0.0044495523 
 1472900 0.0069491241 0.0013008929 0.0043411347 
 1473000 0.0043493402 0.0013926844 0.0032955207 
 1473100 0.0035045236 0.0016680244 0.0032012535 
 1473200 0.0085424966 0.0015223503 0.0052596925 
 1473300 0.0051265726 0.0020566652 0.0042995407 
 1473400 0.0061012376 0.0024499819 0.0051192734 
 1473500 0.0057408048 0.0027933185 0.0053049206 
 1473600 0.0041056358  0.002002445 0.0037986606 
 1473700 0.0053875935 0.0010487421 0.0034058143 
 1473800  0.005866944 0.0012539908 0.0038207788 
 1473900 0.0037484749 0.0013714241 0.0030113819 
 1474000 0.0036722048 0.0015688646 0.0031754542 
 1474100 0.0026741998 0.0016852064 0.0028551688 
 1474200 0.0057900305   0.00151256 0.0040456984 
 1474300 0.0035629945   0.00208162 0.0036404301 
 1474400 0.0039002028 0.0016366933 0.0033430321 
 1474500 0.0097011185 0.0019174637 0.0061617031 
 1474600 0.0043370924 0.0017797453 0.0036772232 
 1474700 0.0057284872 0.0018001627 0.0043063758 
 1474800 0.0047772204 0.0023118594 0.0044018933 
 1474900 0.0041323788 0.0024918439 0.0042997597 
 1475000 0.0060728432 0.0024123974 0.0050692662 
 1475100  0.005505172  0.003454659 0.0058631718 
 1475200 0.0090026292 0.0029379767 0.0068766269 
 1475300 0.0069612879 0.0018420786  0.004887642 
 1475400 0.0035268967 0.0020741983 0.0036172156 
 1475500 0.0094267651 0.0017495653 0.0058737751 
 1475600 0.0051851503  0.001328466 0.0035969692 
 1475700 0.0027951704 0.0016021493 0.0028250364 
 1475800 0.0033798712 0.0020003326 0.0034790263 
 1475900 0.0048150852 0.0020798812  0.004186481 
 1476000 0.0025137302 0.0022931758 0.0033929328 
 1476100 0.0079270079 0.0017025391 0.0051706051 
 1476200 0.0072745892 0.0016056355 0.0047882683 
 1476300 0.0067739488 0.0012919588 0.0042555614 
 1476400 0.0057957013 0.0020855379 0.0046211572 
 1476500 0.0042621578 0.0025579342 0.0044226283 
 1476600 0.0069038997 0.0021039992 0.0051244553 
 1476700 0.0056431007 0.0023227984  0.004791655 
 1476800 0.0063805976  0.003227528 0.0060190394 
 1476900 0.0040318762  0.002510125 0.0042740708 
 1477000 0.0070457919 0.0019254901 0.0050080241 
 1477100 0.0071132955 0.0024963962  0.005608463 
 1477200  0.004837271 0.0023043242 0.0044206303 
 1477300 0.0029072893 0.0027387158 0.0040106549 
 1477400 0.0050936676 0.0039385794  0.006167059 
 1477500 0.0039678746 0.0041587822 0.0058947273 
 1477600 0.0082800696  0.004442626 0.0080651564 
 1477700  0.006643063  0.004599039 0.0075053791 
 1477800 0.0056955289 0.0038364464 0.0063282403 
 1477900 0.0093490014 0.0038684765 0.0079586646 
 1478000 0.0041503738 0.0039416684 0.0057574569 
 1478100 0.0073060121 0.0038042885 0.0070006688 
 1478200 0.0052091333 0.0036917498 0.0059707457 
 1478300 0.0050339091 0.0039963877 0.0061987229 
 1478400 0.0049417278  0.004110016 0.0062720219 
 1478500  0.004170098 0.0044205374 0.0062449552 
 1478600 0.0064442422 0.0040583064 0.0068776623 
 1478700 0.0055015406 0.0032048278 0.0056117518 
 1478800  0.003201237 0.0031452069  0.004545748 
 1478900 0.0056527539 0.0028832432  0.005356323 
 1479000 0.0052245734 0.0027559652 0.0050417161 
 1479100 0.0059046898 0.0019871956 0.0045704974 
 1479200 0.0025599536 0.0017535992 0.0028735789 
 1479300  0.001446569 0.0017997151  0.002432589 
 1479400 0.0048792668 0.0016695068  0.003804186 
 1479500 0.0063820995 0.0023373992 0.0051295677 
 1479600 0.0036517504 0.0034126983 0.0050103391 
 1479700 0.0067793155 0.0019853329 0.0049512834 
 1479800 0.0069272404 0.0015855168 0.0046161845 
 1479900 0.0080156402 0.0026876877 0.0061945303 
 1480000  0.001745813 0.0041288834 0.0048926766 
 1480100  0.010691634 0.0023325514 0.0070101412 
 1480200 0.0075029708 0.0017877827 0.0050703324 
 1480300  0.005396842 0.0014418289 0.0038029473 
 1480400  0.004534793 0.0017034047 0.0036873766 
 1480500 0.0059980455  0.001958367 0.0045825119 
 1480600 0.0037937841  0.002052167 0.0037119476 
 1480700 0.0056542764 0.0020331988 0.0045069448 
 1480800 0.0046544239 0.0020245767 0.0040608872 
 1480900 0.0042657763 0.0024366221 0.0043028992 
 1481000 0.0051959599 0.0029174255 0.0051906579 
 1481100 0.0024294746 0.0025932313 0.0036561264 
 1481200 0.0048504293 0.0023771762 0.0044992391 
 1481300 0.0070811409 0.0023973512 0.0054953503 
 1481400 0.0037987915 0.0021532904 0.0038152617 
 1481500 0.0040205893 0.0031898505 0.0049488583 
 1481600 0.0056452831   0.00375916 0.0062289714 
 1481700 0.0053310114  0.003246173 0.0055784905 
 1481800 0.0047257138 0.0020873971 0.0041548968 
 1481900 0.0058796178 0.0025404563 0.0051127891 
 1482000  0.005212584 0.0031398393 0.0054203448 
 1482100 0.0056425363 0.0022318971 0.0047005068 
 1482200 0.0036803573 0.0020667821 0.0036769384 
 1482300 0.0066123158 0.0014615343 0.0043544225 
 1482400 0.0028577708 0.0018017244 0.0030519992 
 1482500 0.0045949486 0.0030973905 0.0051076805 
 1482600 0.0023763234 0.0035159646 0.0045556061 
 1482700 0.0057709661 0.0028898418 0.0054146394 
 1482800 0.0040369234 0.0028201115 0.0045862655 
 1482900 0.0074646229 0.0016904725 0.0049562451 
 1483000 0.0052750701 0.0019422263 0.0042500695 
 1483100 0.0058026838 0.0022575474 0.0047962216 
 1483200 0.0041492394 0.0026014817 0.0044167739 
 1483300 0.0093203957 0.0011775762 0.0052552493 
 1483400 0.0076212155 0.0016172912  0.004951573 
 1483500 0.0021933736 0.0038269798 0.0047865807 
 1483600 0.0061467812 0.0023532554 0.0050424722 
 1483700 0.0039131859 0.00098968986 0.0027017087 
 1483800 0.0030049959 0.0014658727 0.0027805585 
 1483900 0.0055844144 0.0015164583 0.0039596396 
 1484000 0.0056347395  0.001872319 0.0043375176 
 1484100  0.006064599 0.0016720925 0.0043253546 
 1484200 0.0086893635 0.0015555916 0.0053571882 
 1484300  0.005298871 0.0026821034 0.0050003595 
 1484400 0.0044735846 0.0022138732 0.0041710664 
 1484500   0.00248806 0.0024501163 0.0035386425 
 1484600 0.0074617954 0.0024737531 0.0057382886 
 1484700  0.006528458 0.0028995837 0.0057557841 
 1484800 0.0053418418 0.0026205403 0.0049575961 
 1484900 0.0069108693 0.0024504503 0.0054739556 
 1485000 0.0038230756 0.0015686663 0.0032412619 
 1485100 0.0035358766 0.0017000008 0.0032469468 
 1485200 0.0053818001 0.0025614807 0.0049160182 
 1485300 0.0053562578 0.0035644545 0.0059078173 
 1485400 0.0065330638 0.0033912837 0.0062494991 
 1485500  0.003305911 0.0029532472 0.0043995833 
 1485600 0.0024769108 0.0021770051 0.0032606536 
 1485700 0.0067025775   0.00125504 0.0041874176 
 1485800 0.0051667081 0.0018954981 0.0041559328 
 1485900 0.0027615218 0.0027129569 0.0039211227 
 1486000 0.0087714535 0.0012104947 0.0050480056 
 1486100 0.0043483421 0.0010780838 0.0029804835 
 1486200  0.006081287 0.0010475928 0.0037081558 
 1486300 0.0058794174  0.001279245 0.0038514901 
 1486400 0.0072528748 0.0012991086 0.0044722413 
 1486500 0.0050805654 0.0014438611 0.0036666084 
 1486600 0.0034712061 0.0015165106 0.0030351633 
 1486700 0.0050276672 0.0012223953 0.0034219997 
 1486800 0.0035192536 0.0019759817 0.0035156552 
 1486900 0.0073810862 0.0016506103 0.0048798355 
 1487000 0.0046616442 0.0013516558 0.0033911251 
 1487100 0.0035582112 0.0014803837 0.0030371011 
 1487200 0.0073579389 0.0017567558 0.0049758541 
 1487300 0.0052467668 0.0022712155  0.004566676 
 1487400 0.0075065223  0.002112342 0.0053964455 
 1487500 0.0029745167 0.0021140785 0.0034154296 
 1487600 0.0050561353  0.001924633 0.0041366922 
 1487700 0.0070509035 0.0019297224 0.0050144927 
 1487800  0.004269375 0.0030491152 0.0049169668 
 1487900  0.007138532 0.0021789825 0.0053020902 
 1488000 0.0031459805 0.0018664362 0.0032428026 
 1488100 0.0049794275 0.0016062061 0.0037847056 
 1488200 0.0039743614 0.00097860573 0.0027173888 
 1488300 0.0024325481  0.001104359 0.0021685988 
 1488400 0.0077305281 0.0013373885 0.0047194945 
 1488500 0.0047927955 0.0018711554 0.0039680034 
 1488600 0.0083776205 0.0029780967 0.0066433056 
 1488700 0.0065756653 0.0037485936 0.0066254471 
 1488800 0.0054400283 0.0031549614 0.0055349738 
 1488900 0.0062189544  0.002049862 0.0047706545 
 1489000  0.004134563 0.0020463142 0.0038551856 
 1489100  0.004167434  0.001840462 0.0036637144 
 1489200 0.0059576123 0.0012990783 0.0039055337 
 1489300 0.0074001075 0.0014238285 0.0046613755 
 1489400 0.0048073007 0.00091911176 0.0030223058 
 1489500 0.0056940978 0.0007944986 0.0032856664 
 1489600 0.0033430717 0.00074343537 0.0022060292 
 1489700  0.003271596 0.00053511781  0.001966441 
 1489800 0.0028880862 0.00062155746 0.0018850952 
 1489900 0.0052406471 0.0016947309  0.003987514 
 1490000 0.0025859345 0.0021287972 0.0032601435 
 1490100 0.0045656702 0.0021896675 0.0041871482 
 1490200 0.0050423124 0.0020966922 0.0043027039 
 1490300 0.0050128174 0.0024262674  0.004619375 
 1490400 0.0074546528 0.0031023438 0.0063637544 
 1490500 0.0098408647 0.0023407474 0.0066461257 
 1490600 0.0080077822 0.0021130359 0.0056164406 
 1490700 0.0065359857 0.0016072784 0.0044667721 
 1490800 0.0055806022 0.0011720067 0.0036135202 
 1490900 0.0040420965  0.001626631 0.0033950482 
 1491000 0.0057822451 0.0017212164 0.0042509486 
 1491100 0.0027855108  0.001668881 0.0028875419 
 1491200 0.0066498185 0.00095992259 0.0038692182 
 1491300  0.006332084 0.0010921054 0.0038623921 
 1491400 0.0069558704 0.0018416988 0.0048848921 
 1491500 0.0049304203 0.0025808412 0.0047379001 
 1491600 0.0050662079 0.0017447002 0.0039611662 
 1491700 0.0039702501 0.0017486976  0.003485682 
 1491800 0.0036187229 0.0013881326 0.0029713239 
 1491900 0.0058239356 0.0012295737 0.0037775455 
 1492000 0.0029922601 0.0011013253 0.0024104391 
 1492100 0.0070505154 0.0014152006 0.0044998011 
 1492200 0.0048504478 0.0014684056 0.0035904765 
 1492300 0.0041330026 0.0011986684 0.0030068571 
 1492400  0.004553027 0.0012473959 0.0032393452 
 1492500 0.0034237145 0.0013638385 0.0028617136 
 1492600 0.0053298495 0.0011597475 0.0034915567 
 1492700 0.0064500132  0.001761649 0.0045835298 
 1492800 0.0043080255 0.0020172044 0.0039019655 
 1492900 0.0033253373 0.0020176466 0.0034724816 
 1493000 0.0058083642 0.0014291742 0.0039703335 
 1493100 0.0048932309 0.0017109239 0.0038517124 
 1493200 0.0058201809 0.0013599794 0.0039063086 
 1493300 0.0087535257 0.0011016649 0.0049313325 
 1493400 0.0047758942 0.0014847655 0.0035742192 
 1493500 0.0059641253 0.0010149165 0.0036242213 
 1493600 0.0046552728 0.0018093241 0.0038460059 
 1493700  0.002190937 0.0023398224 0.0032983573 
 1493800 0.0031012519 0.0023487535 0.0037055512 
 1493900 0.0046522746 0.0021337104 0.0041690806 
 1494000 0.0072800526 0.0018059694 0.0049909924 
 1494100 0.0074374398 0.0015069617 0.0047608416 
 1494200 0.0062647779 0.0022919011 0.0050327414 
 1494300 0.0040063392 0.0023407874 0.0040935608 
 1494400 0.0027318932 0.0016091516 0.0028043549 
 1494500 0.0043752772 0.0015869399 0.0035011237 
 1494600 0.0074722564 0.0020683233 0.0053374355 
 1494700 0.0054461192 0.0029908688  0.005373546 
 1494800 0.0048712796 0.0031174865 0.0052486714 
 1494900 0.0031838805 0.0032607063  0.004653654 
 1495000 0.0050711145 0.0028581532 0.0050767658 
 1495100 0.0042888447 0.0018209782 0.0036973478 
 1495200 0.0088938045 0.0022493217 0.0061403612 
 1495300 0.0018423706 0.0034378873 0.0042439244 
 1495400 0.0055889389 0.0033573344 0.0058024952 
 1495500 0.0054851979 0.0026352781 0.0050350522 
 1495600 0.0035137565  0.001497933 0.0030352015 
 1495700 0.0033717994 0.0012859299 0.0027610921 
 1495800 0.0085437563 0.00070668057  0.004444574 
 1495900 0.0035795701 0.00083031574 0.0023963777 
 1496000 0.0093026054 0.0011815356 0.0052514255 
 1496100 0.0035761741 0.0020931313 0.0036577074 
 1496200 0.0043867268 0.0031808544 0.0051000474 
 1496300  0.011128559  0.002694351 0.0075630958 
 1496400 0.0081582615 0.0018687434 0.0054379828 
 1496500 0.0021286867 0.0023528313 0.0032841317 
 1496600 0.0033334539 0.0025037381 0.0039621242 
 1496700 0.0053680829  0.002531318 0.0048798543 
 1496800  0.004366531 0.0022486775 0.0041590348 
 1496900 0.0029156125 0.0023029241 0.0035785046 
 1497000  0.006446305 0.0018588763 0.0046791347 
 1497100 0.0053146742 0.0022428191 0.0045679891 
 1497200 0.0025694674 0.0020271198 0.0031512618 
 1497300 0.0042673866 0.0023421977 0.0042091793 
 1497400 0.0028685836 0.0022132545 0.0034682599 
 1497500  0.004755485 0.0015317231 0.0036122478 
 1497600 0.0031787455 0.0020860645 0.0034767657 
 1497700 0.0054369703 0.0021140924  0.004492767 
 1497800 0.0044245429 0.0015760836 0.0035118211 
 1497900 0.0045760655 0.0016427572 0.0036447858 
 1498000 0.0057820347 0.0015443335 0.0040739737 
 1498100 0.0050814506 0.0014076808 0.0036308154 
 1498200 0.0063890759 0.0024426959 0.0052379166 
 1498300 0.0037540122 0.0044956595 0.0061380398 
 1498400 0.0049124444 0.0038036667 0.0059528612 
 1498500 0.0076860361 0.0015112956 0.0048739364 
 1498600 0.0030149388 0.0013332996 0.0026523353 
 1498700 0.0067374732  0.001313406 0.0042610505 
 1498800    0.0076253 0.0011406437 0.0044767124 
 1498900 0.0069460487 0.0016679933 0.0047068896 
 1499000 0.0039206607 0.0025464197 0.0042617087 
 1499100 0.0048533946 0.0023113616 0.0044347218 
 1499200 0.0058784614 0.0018288261  0.004400653 
 1499300 0.0072873305 0.0018482729   0.00503648 
 1499400  0.012003317 0.0020356901 0.0072871415 
 1499500 0.0051279211 0.0028064528 0.0050499183 
 1499600  0.010416686 0.0030302643 0.0075875643 
 1499700 0.0047674353 0.0032525986 0.0053383516 
 1499800  0.010459063 0.0023975564 0.0069733966 
 1499900 0.0071546652 0.0040180155 0.0071481815 
 1500000 0.0094464212 0.0057129991 0.0098458084 
Loop time of 6.29938 on 1 procs for 1500000 steps with 16 atoms

Pair  time (%) = 0 (0)
Bond  time (%) = 1.72677 (27.4118)
Neigh time (%) = 0.426278 (6.76699)
Comm  time (%) = 0.916309 (14.546)
Outpt time (%) = 0.0584774 (0.928304)
Other time (%) = 3.17154 (50.3469)

Nlocal:    16 ave 16 max 16 min
Histogram: 1 0 0 0 0 0 0 0 0 0
Nghost:    4 ave 4 max 4 min
Histogram: 1 0 0 0 0 0 0 0 0 0
Neighs:    0 ave 0 max 0 min
Histogram: 1 0 0 0 0 0 0 0 0 0

Total # of neighbors = 0
Ave neighs/atom = 0
Ave special neighs/atom = 6
Neighbor list builds = 1500000
Dangerous builds = 0
