LAMMPS (7 May 2011)
# 3D simple cubic lattice simulation
dimension   2
boundary    p f p

units		   lj
atom_style	bond
atom_modify sort 0 1.
bond_style  harmonic
pair_style  none
communicate single cutoff 2.0

# geometry
read_data	data.pos
  1 = max bonds/atom
  orthogonal box = (0 -1 -0.0001) to (16 1 0.0001)
  1 by 1 by 1 processor grid
  16 atoms
  16 bonds
  2 = max # of 1-2 neighbors
  2 = max # of 1-3 neighbors
  4 = max # of 1-4 neighbors
  6 = max # of special neighbors

#
neighbor 0.5 nsq
neigh_modify delay 0 check no

#Langevin random seed
variable r equal 571101

#Langevin Temperature
variable t equal 0.005

# Langevin Damping variable
variable d equal 0.5

# time step
timestep  0.005

# Create velocities and equilibrate 
compute   MyTemp all temp/partial 1 0 0
velocity  all create $t 28711 mom yes rot yes dist gaussian temp MyTemp
velocity  all create 0.005 28711 mom yes rot yes dist gaussian temp MyTemp
velocity  all set NULL 0.0 0.0 units box
#
fix        1 all langevin $t $t $d $r
fix        1 all langevin 0.005 $t $d $r
fix        1 all langevin 0.005 0.005 $d $r
fix        1 all langevin 0.005 0.005 0.5 $r
fix        1 all langevin 0.005 0.005 0.5 571101
fix_modify 1 temp MyTemp
fix        2 all setforce NULL 0. 0.
fix        3 all nve
fix        4 all phonon 10 50000 500000 map.in phonon sysdim 1
fix_modify 4 temp MyTemp
#
#                    1    2    3  4
thermo_style  custom step temp pe etotal
thermo_modify temp MyTemp
thermo   100

dump    	4 all atom 50000 dump_LJ_ANA.lammpstrj 

run 		2000000
Memory usage per processor = 1.90664 Mbytes
Step Temp PotEng TotEng 
       0        0.005            0    0.0021875 
     100  0.002868961 0.00049005558  0.001745226 
     200 0.0033995889 0.00054780054 0.0020351207 
     300 0.0054818055 0.0010469399 0.0034452298 
     400 0.0026493115  0.001228133 0.0023872068 
     500 0.0042074098 0.00093834909 0.0027790909 
     600 0.0057427721 0.00064844108 0.0031609039 
     700  0.004921032 0.0017780884 0.0039310399 
     800 0.0068003961 0.0021362756 0.0051114488 
     900 0.0031879644 0.0029121839 0.0043069184 
    1000 0.0059917292 0.0024632053 0.0050845869 
    1100 0.0043016829 0.0035582063 0.0054401926 
    1200 0.0084605975 0.0031321738 0.0068336852 
    1300 0.0098730258 0.0024609445 0.0067803933 
    1400 0.0060873759 0.0021415346 0.0048047615 
    1500 0.0078839822 0.0012070863 0.0046563285 
    1600 0.0031159339 0.0023450946 0.0037083157 
    1700 0.0021501443 0.0028839927 0.0038246809 
    1800 0.0050136885 0.0034933597 0.0056868484 
    1900 0.0086188412 0.0030554687 0.0068262117 
    2000 0.0084162384 0.0015479368  0.005230041 
    2100 0.0057972274 0.0023245855 0.0048608725 
    2200 0.0064841958 0.0034864735 0.0063233092 
    2300 0.0055536883 0.0030756787 0.0055054174 
    2400 0.0054137112 0.0030210898 0.0053895884 
    2500 0.0073261659 0.0034340199 0.0066392175 
    2600 0.0039582983 0.0041832423 0.0059149978 
    2700 0.0042154596 0.0048299287 0.0066741923 
    2800 0.0059407863 0.0048359381 0.0074350321 
    2900 0.0037088778 0.0045734427 0.0061960767 
    3000 0.0064465499 0.0038936599 0.0067140255 
    3100 0.0053118884 0.0024237167 0.0047476679 
    3200  0.012825849 0.0021105509 0.0077218599 
    3300 0.0085595354 0.0017971196 0.0055419164 
    3400 0.0077261689 0.0012880669 0.0046682658 
    3500 0.0043464914  0.001427043  0.003328633 
    3600 0.0050155979 0.0023478391 0.0045421632 
    3700 0.0034972346 0.0033316547 0.0048616949 
    3800 0.0077498084 0.0033173675 0.0067079087 
    3900 0.0049762294 0.0024562833 0.0046333836 
    4000 0.0053205525 0.0025529684 0.0048807101 
    4100 0.0042657372 0.0024499264 0.0043161865 
    4200 0.0041011735 0.0021553052 0.0039495686 
    4300 0.0060706468 0.0028467275 0.0055026355 
    4400 0.0050258585 0.0022986541 0.0044974672 
    4500 0.0056559747  0.002486998  0.004961487 
    4600  0.007136708 0.0036128099 0.0067351197 
    4700  0.004069736 0.0037178139 0.0054983234 
    4800 0.0066277546 0.0019024222 0.0048020648 
    4900 0.0046551281 0.0014829897 0.0035196082 
    5000 0.0059916724 0.0010667504 0.0036881071 
    5100 0.0065964977 0.0019076085 0.0047935762 
    5200 0.0072049706 0.0022988183 0.0054509929 
    5300 0.0041351212 0.0020165083 0.0038256239 
    5400 0.0036895702 0.0017908617 0.0034050487 
    5500 0.0060925561 0.0022271035 0.0048925968 
    5600 0.0086518837  0.001923727 0.0057089261 
    5700 0.0052500824 0.0016651094 0.0039620204 
    5800  0.010236748 0.0014771855 0.0059557628 
    5900 0.0085031093 0.0012157918 0.0049359021 
    6000 0.0057443586 0.0018514969 0.0043646538 
    6100 0.0040008069 0.0020605489 0.0038109019 
    6200 0.0029135026 0.0026306282 0.0039052856 
    6300 0.0048376564 0.0025991345 0.0047156091 
    6400 0.0055840926 0.0022331864 0.0046762269 
    6500 0.0043321416 0.0025897733 0.0044850853 
    6600 0.0057110528 0.0019405368 0.0044391224 
    6700  0.003837294 0.0022602975 0.0039391136 
    6800 0.0089542828 0.0019603937 0.0058778924 
    6900 0.0050884845 0.0021136027 0.0043398147 
    7000 0.0061607518 0.0018442279 0.0045395568 
    7100 0.0041928088 0.0027912647 0.0046256185 
    7200 0.0029297723 0.0042058451 0.0054876205 
    7300 0.0066226248 0.0044513972 0.0073487955 
    7400 0.0070762076 0.0028930488 0.0059888896 
    7500 0.0054489577 0.0026016277 0.0049855467 
    7600 0.0044594212 0.0028950046 0.0048460013 
    7700 0.0057515376 0.0028096166 0.0053259143 
    7800 0.0092867444 0.0025190915 0.0065820422 
    7900 0.0066646155  0.001632122 0.0045478912 
    8000 0.0025784975 0.0017622997 0.0028903924 
    8100 0.0061562503 0.0019731335  0.004666493 
    8200 0.0065525018 0.0016109688 0.0044776883 
    8300 0.0044243496 0.00096829358 0.0029039465 
    8400 0.0036088274 0.00095309107  0.002531953 
    8500 0.0038023198 0.0016607948 0.0033243097 
    8600 0.0076060473 0.0015206346 0.0048482802 
    8700 0.0042356708 0.0016718471 0.0035249531 
    8800 0.0052358329 0.0019050605 0.0041957374 
    8900 0.0043530373 0.0026316815 0.0045361353 
    9000 0.0047472643 0.0020964254 0.0041733536 
    9100 0.0085313059 0.0025128691 0.0062453154 
    9200 0.0047220495 0.0039750254  0.006040922 
    9300 0.0066454784 0.0050109542 0.0079183511 
    9400 0.0077086643 0.0040388764  0.007411417 
    9500 0.0094939577 0.0023597477 0.0065133542 
    9600 0.0037307269 0.0025809861 0.0042131791 
    9700 0.0055707491 0.0023049682 0.0047421709 
    9800 0.0053455216  0.002278106 0.0046167717 
    9900 0.0045951737 0.0017275278 0.0037379163 
   10000 0.0033051276 0.0013348902 0.0027808835 
   10100  0.002800099 0.0013755948 0.0026006381 
   10200 0.0034503419 0.0023262158 0.0038357404 
   10300 0.0019177467 0.0021825841 0.0030215983 
   10400 0.0069877867 0.0018828517 0.0049400084 
   10500 0.0042571649 0.0021669052 0.0040294148 
   10600 0.0072898917 0.0011766139 0.0043659415 
   10700 0.0043657678 0.0013274973 0.0032375207 
   10800 0.0015304969 0.0015789828 0.0022485751 
   10900  0.004326219 0.0012225568 0.0031152776 
   11000  0.006613637 0.0016493181 0.0045427843 
   11100   0.00410722 0.0019025793 0.0036994881 
   11200  0.004008543 0.0022785914  0.004032329 
   11300  0.007111869 0.0021558892 0.0052673319 
   11400 0.0058494551   0.00132329 0.0038824266 
   11500 0.0046541342 0.0011605041 0.0031966878 
   11600 0.0059243703 0.0014000757 0.0039919878 
   11700 0.0047286318 0.0019868421 0.0040556185 
   11800 0.0030145605 0.0024255579 0.0037444281 
   11900 0.0052030494 0.0026038834 0.0048802175 
   12000 0.0034299332 0.0027141736 0.0042147694 
   12100 0.0049507382 0.0031815282 0.0053474762 
   12200 0.0070682009 0.0031189157 0.0062112536 
   12300 0.0067578452 0.0037900445 0.0067466018 
   12400 0.0084303279 0.0035571794 0.0072454479 
   12500 0.0046105036 0.0022325459 0.0042496412 
   12600  0.006677905 0.0016675876  0.004589171 
   12700 0.0050322054 0.0023460215 0.0045476113 
   12800 0.0058423622 0.0030599679 0.0056160014 
   12900 0.0090672207 0.0034289314 0.0073958404 
   13000 0.0069737205 0.0033777797 0.0064287824 
   13100 0.0042124314  0.003584112 0.0054270507 
   13200 0.0099477172 0.0029567556 0.0073088819 
   13300 0.0050071532 0.0033740671 0.0055646966 
   13400 0.0059341346 0.0023027945 0.0048989784 
   13500 0.0057640311 0.0018587394  0.004380503 
   13600  0.012149427 0.0018380343 0.0071534085 
   13700 0.0042842829 0.0027911015 0.0046654752 
   13800 0.0060311441 0.0030163222 0.0056549478 
   13900 0.0027844989 0.0023352298 0.0035534481 
   14000 0.0056905779 0.0013426508 0.0038322786 
   14100 0.0048634289 0.0014436953 0.0035714455 
   14200  0.007907836   0.00161036 0.0050700382 
   14300 0.0051486867 0.0022443621 0.0044969125 
   14400 0.0057987705 0.0026737006 0.0052106627 
   14500  0.011793425 0.0024961611 0.0076557845 
   14600 0.0078317144 0.0021501453 0.0055765204 
   14700 0.0059161988 0.0016026469 0.0041909839 
   14800 0.0062616843 0.0016244529 0.0043639398 
   14900 0.0043782125 0.0020461541 0.0039616221 
   15000 0.0044979957 0.0018040781 0.0037719512 
   15100 0.0040494954 0.0021684715 0.0039401258 
   15200 0.0053327408 0.0023532524 0.0046863265 
   15300 0.0017332792 0.0027898861 0.0035481958 
   15400   0.01072213 0.0018429924 0.0065339244 
   15500 0.0070616914 0.0037964821 0.0068859721 
   15600 0.0032978939 0.0031958614 0.0046386899 
   15700  0.011346854 0.0026961533 0.0076604019 
   15800 0.0053673785 0.0019578468 0.0043060749 
   15900 0.0037794735 0.0022342634 0.0038877831 
   16000 0.0076156294 0.0022035256 0.0055353634 
   16100 0.0060550128 0.0021330143 0.0047820824 
   16200 0.0053918389 0.0023036201 0.0046625497 
   16300 0.0078600816 0.0023476986 0.0057864843 
   16400 0.0052995439 0.0030916676  0.005410218 
   16500 0.0086073906 0.0027428444 0.0065085778 
   16600 0.0078510654 0.0025339502 0.0059687913 
   16700  0.008016524 0.0028413272 0.0063485564 
   16800  0.003037984 0.0043156587 0.0056447767 
   16900 0.0042829689 0.0026031121  0.004476911 
   17000 0.0020448881 0.0019844939 0.0028791324 
   17100   0.00935575 0.0015012628 0.0055944034 
   17200 0.0069163241 0.0034668608 0.0064927526 
   17300  0.003025883 0.0045116725 0.0058354963 
   17400 0.0076409064 0.0032838852 0.0066267818 
   17500 0.0036697182 0.0038230729 0.0054285746 
   17600 0.0066750834 0.0033850209 0.0063053699 
   17700 0.0037997331 0.0029607944 0.0046231776 
   17800 0.0046633506 0.0028776463 0.0049178622 
   17900  0.003233011 0.0035026176 0.0049170599 
   18000 0.0060860927 0.0033234689 0.0059861344 
   18100 0.0055517265 0.0025591321 0.0049880125 
   18200 0.0076060184 0.0018645877 0.0051922208 
   18300 0.0061561245 0.0021484102 0.0048417147 
   18400 0.0046330484 0.0025282639 0.0045552226 
   18500 0.0028358476 0.0033170879 0.0045577712 
   18600 0.0051431486 0.0026469983 0.0048971259 
   18700 0.0059005121 0.0018671023 0.0044485763 
   18800  0.006447767 0.0015452375 0.0043661356 
   18900 0.0011622372 0.0019369779 0.0024454566 
   19000 0.0058815805 0.0021151864 0.0046883779 
   19100 0.0090725761 0.0019857409  0.005954993 
   19200 0.0041395284 0.0036726602 0.0054837039 
   19300 0.0062356083 0.0038510698 0.0065791484 
   19400  0.011827066 0.0028851477  0.008059489 
   19500 0.0047738974 0.0033611479  0.005449728 
   19600  0.006896717 0.0029522796 0.0059695933 
   19700 0.0046876567 0.0022717726 0.0043226224 
   19800 0.0062311491 0.0031989742 0.0059251019 
   19900 0.0037416759 0.0052878866 0.0069248698 
   20000 0.0032685371 0.0043704209 0.0058004058 
   20100 0.0092783402 0.0037245427 0.0077838165 
   20200 0.0033447229 0.0036741879 0.0051375042 
   20300  0.010093169 0.0025702508 0.0069860123 
   20400 0.0053284544 0.0031652746 0.0054964734 
   20500 0.0048682821 0.0032711114 0.0054009848 
   20600  0.003262349  0.003259996 0.0046872737 
   20700 0.0043639934  0.003787833 0.0056970801 
   20800 0.0052671211 0.0038204508 0.0061248162 
   20900 0.0057094511 0.0031685984 0.0056664833 
   21000 0.0033609139 0.0035260122 0.0049964121 
   21100 0.0053553599 0.0027010057 0.0050439756 
   21200 0.0047022767  0.003634606  0.005691852 
   21300 0.0055907857 0.0037266578 0.0061726266 
   21400 0.0094522586 0.0026910684 0.0068264315 
   21500 0.0046163246 0.0032984015 0.0053180435 
   21600 0.0063381467  0.002628066 0.0054010052 
   21700 0.0051902045 0.0022310515  0.004501766 
   21800 0.0064225188 0.0026121994 0.0054220514 
   21900 0.0042900296 0.0040102918 0.0058871797 
   22000 0.0035896876 0.0036811727  0.005251661 
   22100 0.0062619399 0.0030317773  0.005771376 
   22200 0.0058635234 0.0030137363 0.0055790278 
   22300 0.0054212284 0.0022785982 0.0046503857 
   22400 0.0037941007 0.0019820379 0.0036419569 
   22500 0.0043317858 0.0019324876 0.0038276438 
   22600 0.0038815693 0.0021454742 0.0038436608 
   22700 0.0037555583 0.0031174831 0.0047605398 
   22800 0.0035673861 0.0030706227 0.0046313542 
   22900 0.0053302787 0.0031634756 0.0054954726 
   23000 0.0054918892 0.0023022376 0.0047049391 
   23100  0.003509605 0.0021067553 0.0036422075 
   23200 0.0062482783 0.0023157114 0.0050493332 
   23300 0.0060246704 0.0038608929 0.0064966862 
   23400 0.0060821027 0.0042164314 0.0068773513 
   23500 0.0051120316  0.004764963 0.0070014768 
   23600 0.0048638972 0.0039708591 0.0060988141 
   23700 0.0050579652 0.0036642381 0.0058770979 
   23800 0.0062273263 0.0035894084 0.0063138637 
   23900 0.0066409557 0.0035448421 0.0064502602 
   24000 0.0040811724 0.0036755713 0.0054610843 
   24100 0.0022123028 0.0043924008 0.0053602832 
   24200 0.0079324476 0.0038560614 0.0073265072 
   24300 0.0093539498 0.0043768801 0.0084692331 
   24400 0.0040994241 0.0046199568 0.0064134549 
   24500  0.010728082  0.004563053 0.0092565889 
   24600  0.010042303 0.0042361762 0.0086296837 
   24700 0.0043623888 0.0053161923 0.0072247374 
   24800 0.0066642445 0.0045904385 0.0075060455 
   24900  0.010352107 0.0039444789 0.0084735257 
   25000 0.0071200081 0.0045590575  0.007674061 
   25100  0.004086016 0.0047218697 0.0065095017 
   25200 0.0030634581 0.0042567611  0.005597024 
   25300 0.0056782829 0.0030820654 0.0055663141 
   25400 0.0071296895 0.0036933256 0.0068125648 
   25500 0.0033709114 0.0049819918 0.0064567656 
   25600 0.0025280979 0.0042964104 0.0054024532 
   25700  0.004851982 0.0035564936 0.0056792357 
   25800 0.0061140996 0.0031829649 0.0058578835 
   25900 0.0065333966 0.0040333377 0.0068916987 
   26000  0.004735109 0.0045439512 0.0066155614 
   26100  0.003827303 0.0035110288 0.0051854738 
   26200 0.0070437024 0.0033585458 0.0064401656 
   26300 0.0078267672 0.0030423394 0.0064665501 
   26400 0.0050690266 0.0023752926 0.0045929918 
   26500 0.0036558777 0.0026081794 0.0042076259 
   26600 0.0036666436 0.0022921553 0.0038963119 
   26700 0.0062044223   0.00165296 0.0043673948 
   26800 0.0047137328 0.0015695797 0.0036318378 
   26900 0.0048491744 0.0014467198 0.0035682336 
   27000 0.0046637562 0.0022676774 0.0043080707 
   27100 0.0094944091 0.0024397045 0.0065935084 
   27200 0.0038508052 0.0033327158  0.005017443 
   27300 0.0058706973 0.0030769829  0.005645413 
   27400 0.0061965664 0.0015952251 0.0043062229 
   27500 0.0055507769 0.0012911473 0.0037196121 
   27600 0.0036489914 0.0014092734 0.0030057072 
   27700 0.0030183644 0.0016612624 0.0029817968 
   27800 0.0046617314 0.0019397266 0.0039792341 
   27900 0.0064790334 0.0017043521 0.0045389293 
   28000 0.0030973764 0.0011276426 0.0024827447 
   28100 0.0040519654 0.0010847239 0.0028574587 
   28200  0.005004112 0.0014925162 0.0036818152 
   28300 0.0062893523 0.0016704554  0.004422047 
   28400 0.0062834724 0.0012629902 0.0040120094 
   28500 0.0030243194 0.00096848044 0.0022916202 
   28600 0.0036353548 0.0019067067 0.0034971744 
   28700 0.0026294169 0.0028234938 0.0039738637 
   28800 0.0063827457 0.0016783419 0.0044707932 
   28900 0.0036793668  0.001101029 0.0027107519 
   29000 0.0051537295 0.0010095698 0.0032643264 
   29100 0.0052602514 0.0015037396 0.0038050996 
   29200  0.004082994 0.0015424137 0.0033287236 
   29300 0.0059849745 0.0021423802 0.0047608066 
   29400 0.0039707777 0.0032403658  0.004977581 
   29500 0.0064227847  0.002560428 0.0053703963 
   29600 0.0068384763 0.0027556477 0.0057474811 
   29700 0.0064261113 0.0021115055 0.0049229292 
   29800 0.0034700875 0.0025238631 0.0040420264 
   29900 0.0049451027  0.002788009 0.0049514914 
   30000 0.0054164272 0.0020927869 0.0044624738 
   30100 0.0075978186 0.0013897778 0.0047138234 
   30200 0.0067646731 0.0014311537 0.0043906981 
   30300 0.0029913014 0.0020195249 0.0033282193 
   30400  0.007401265 0.0018531275  0.005091181 
   30500  0.005636891 0.0021890389 0.0046551787 
   30600 0.0057736965 0.0022898376 0.0048158299 
   30700 0.0030073543 0.0031008796 0.0044165971 
   30800 0.0036794877 0.0033493036 0.0049590795 
   30900 0.0064217601 0.0024850651 0.0052945852 
   31000  0.010371383 0.0022472441  0.006784724 
   31100 0.0067531862 0.0024684969 0.0054230159 
   31200 0.0051984521 0.0023842433 0.0046585661 
   31300 0.0045675118 0.0024968501 0.0044951365 
   31400    0.0052298 0.0036092739 0.0058973114 
   31500 0.0042038137  0.003952685 0.0057918535 
   31600 0.0069035259 0.0035311253 0.0065514178 
   31700 0.0065096255 0.0030938866 0.0059418478 
   31800 0.0046925469 0.0029445331 0.0049975224 
   31900 0.0022487004 0.0025705537 0.0035543601 
   32000 0.0039978939 0.0016199912 0.0033690698 
   32100  0.003569321 0.0016696614 0.0032312394 
   32200 0.0032384103 0.0030136107 0.0044304152 
   32300 0.0041858405 0.0030247408  0.004856046 
   32400 0.0049774988 0.0029132685 0.0050909242 
   32500 0.0071901897 0.0020405527 0.0051862606 
   32600 0.0066939667 0.0020858324 0.0050144428 
   32700 0.0039199072 0.0019050055 0.0036199649 
   32800 0.0073229561 0.0021509507  0.005354744 
   32900 0.0048680847 0.0026417167 0.0047715038 
   33000 0.0036458714 0.0026066676 0.0042017363 
   33100 0.0031996344 0.0018119558 0.0032117958 
   33200 0.0060382398 0.0017783023 0.0044200322 
   33300 0.0046242404 0.0031130423 0.0051361475 
   33400 0.0047977779 0.0035621008 0.0056611286 
   33500 0.0041831068 0.0020561853 0.0038862945 
   33600 0.0044482214 0.0022547317 0.0042008286 
   33700  0.007993194 0.0024284682 0.0059254906 
   33800 0.0036614127  0.005294631 0.0068964991 
   33900 0.0083869821 0.0030855002 0.0067548049 
   34000 0.0064653226  0.001936269 0.0047648477 
   34100 0.0055629425 0.0024867282 0.0049205156 
   34200 0.0062009854 0.0022647043 0.0049776354 
   34300  0.005189066 0.0016811001 0.0039513165 
   34400  0.006068651 0.0022033753 0.0048584101 
   34500 0.0083499283 0.0037148883 0.0073679819 
   34600 0.0039156936 0.0035998084 0.0053129244 
   34700 0.0064529695 0.0027247132 0.0055478874 
   34800 0.0022201092 0.0029408325 0.0039121302 
   34900 0.0087868553 0.0025345719 0.0063788211 
   35000 0.0037235512 0.0025998011 0.0042288548 
   35100 0.0045912925 0.0036692914 0.0056779819 
   35200 0.0069157747 0.0046513308 0.0076769822 
   35300  0.008064727 0.0046375678 0.0081658858 
   35400  0.006663116 0.0032216167 0.0061367299 
   35500 0.0053309745 0.0023954114 0.0047277128 
   35600 0.0065757001 0.0024329506 0.0053098194 
   35700 0.0085931192 0.0017544464  0.005513936 
   35800 0.0079570604 0.0017463822 0.0052275961 
   35900  0.002590432 0.0020027791 0.0031360931 
   36000 0.0051024704 0.0022964176 0.0045287484 
   36100 0.0042279638 0.0016726494 0.0035223836 
   36200 0.0047911511 0.0024819295 0.0045780581 
   36300 0.0060495579 0.0030124399 0.0056591215 
   36400 0.0040257787 0.0035819254 0.0053432036 
   36500 0.0048146848 0.0024131963 0.0045196209 
   36600 0.0093354111 0.00087703413 0.0049612765 
   36700 0.0033085889  0.001916919 0.0033644266 
   36800 0.0050724658 0.0022159449 0.0044351487 
   36900 0.0085532161 0.0020512205 0.0057932525 
   37000 0.0070652359 0.0030612176 0.0061522583 
   37100 0.0069230772 0.0034304682 0.0064593144 
   37200 0.0046856752 0.0026744669 0.0047244498 
   37300 0.0051370692 0.0021232002  0.004370668 
   37400 0.0035476491 0.0016281054 0.0031802018 
   37500  0.001723998 0.0012431328 0.0019973819 
   37600 0.0039057638 0.0012086726 0.0029174442 
   37700 0.0050038437 0.0017669611 0.0039561427 
   37800 0.0065478387 0.0016548134 0.0045194928 
   37900 0.0043767617 0.0024818134 0.0043966467 
   38000 0.0082295678 0.0030993433 0.0066997793 
   38100 0.0037985968 0.0023753138 0.0040371999 
   38200 0.0062889647 0.0010223435 0.0037737656 
   38300 0.0040171848 0.00070503105 0.0024625494 
   38400 0.0094520299 0.0010519888 0.0051872518 
   38500 0.0041724353 0.0028920713 0.0047175118 
   38600 0.0066148337 0.0032435275 0.0061375173 
   38700 0.0077312959  0.002629611 0.0060120529 
   38800 0.0047495204 0.0018825203 0.0039604355 
   38900 0.0046038795 0.0021037426 0.0041179399 
   39000  0.003146399 0.0030234918 0.0044000414 
   39100 0.0052954359 0.0026292338 0.0049459871 
   39200 0.0053223585  0.002673122 0.0050016539 
   39300 0.0036318202 0.0028617238 0.0044506451 
   39400  0.007086139 0.0022043325 0.0053045183 
   39500 0.0046299086 0.0022125996 0.0042381846 
   39600 0.0022983673 0.0018373659 0.0028429016 
   39700 0.0043897748 0.0017745399 0.0036950663 
   39800 0.0031096948 0.0021430179 0.0035035094 
   39900  0.004378735 0.0019621305  0.003877827 
   40000 0.0059014733 0.0022851899 0.0048670845 
   40100 0.0046548216 0.0018150252 0.0038515097 
   40200 0.0037117849 0.0016764257 0.0033003316 
   40300 0.0062806391 0.0022370439 0.0049848235 
   40400 0.0053048379 0.0016714014  0.003992268 
   40500 0.0069589915 0.0014648237 0.0045093825 
   40600 0.0056872453 0.0015210923 0.0040092621 
   40700 0.0037662695 0.0013009036 0.0029486464 
   40800 0.0085381315 0.0011540536 0.0048894861 
   40900 0.0053093775 0.0019213923 0.0042442449 
   41000 0.0055806117 0.0017449171 0.0041864347 
   41100 0.0028158675 0.0017244597 0.0029564018 
   41200 0.0029113933  0.001570678 0.0028444125 
   41300 0.0069108456 0.0025138394 0.0055373344 
   41400 0.0037981529 0.0029759091 0.0046376011 
   41500  0.006968248 0.0023232301 0.0053718386 
   41600 0.0068446039 0.0044512422 0.0074457564 
   41700 0.0068830618 0.0034479662 0.0064593058 
   41800 0.0057885049   0.00161772 0.0041501908 
   41900  0.011544001 0.0015769656 0.0066274662 
   42000 0.0050441478 0.0038983537 0.0061051684 
   42100 0.0055496434 0.0034456023 0.0058735712 
   42200 0.0058266261 0.0033824483 0.0059315973 
   42300 0.0078690753 0.0023690453 0.0058117657 
   42400  0.002703578 0.0036170938 0.0047999091 
   42500 0.0058863223 0.0041773707 0.0067526367 
   42600 0.0090584569 0.0028111714 0.0067742463 
   42700  0.005586237 0.0025797428 0.0050237215 
   42800  0.007065093 0.0015317327 0.0046227109 
   42900 0.0045455466 0.0018173941 0.0038060707 
   43000 0.0088128075 0.0014658231 0.0053214264 
   43100 0.0038423437 0.0010903915 0.0027714169 
   43200 0.0031052138 0.00066941632 0.0020279474 
   43300 0.0033602251 0.00068235627 0.0021524547 
   43400 0.0049256998 0.00096139815 0.0031163918 
   43500 0.0051557097 0.0016953896 0.0039510126 
   43600 0.0032625572 0.0038459652  0.005273334 
   43700 0.0068398855 0.0026338704 0.0056263203 
   43800 0.0066492619 0.0021622756 0.0050713277 
   43900 0.0066028573  0.003027023 0.0059157731 
   44000 0.0086983878 0.0028653148 0.0066708595 
   44100  0.006090868 0.0022605716 0.0049253264 
   44200 0.0048652957 0.0016228403 0.0037514072 
   44300 0.0063225714 0.0021902152 0.0049563402 
   44400 0.0046366504 0.0022907074 0.0043192419 
   44500 0.0053563743 0.0022556022  0.004599016 
   44600 0.0041385244 0.0020551625  0.003865767 
   44700 0.0062830746 0.0021884276 0.0049372727 
   44800 0.0084595398 0.0029945963 0.0066956449 
   44900 0.0053621246 0.0040410532 0.0063869827 
   45000 0.0062285161 0.0036549529 0.0063799287 
   45100 0.0060476307 0.0026067485  0.005252587 
   45200 0.0062481518 0.0028082284 0.0055417948 
   45300 0.0030600027  0.004293372 0.0056321232 
   45400 0.0062683365 0.0040823066 0.0068247038 
   45500  0.013794891 0.0016661233 0.0077013881 
   45600 0.0059415795 0.0020081028 0.0046075439 
   45700 0.0048352109 0.0016750946 0.0037904994 
   45800  0.007131912 0.0024545197 0.0055747312 
   45900 0.0023771078 0.0031472423  0.004187227 
   46000 0.0061673984 0.0031152349 0.0058134717 
   46100 0.0053927336 0.0022569497 0.0046162706 
   46200 0.0039190018 0.0017613597  0.003475923 
   46300 0.0049749156 0.0013976339 0.0035741594 
   46400  0.011564294  0.001397602 0.0064569807 
   46500 0.0056937206 0.0017466838 0.0042376866 
   46600 0.0070036607 0.0015017454 0.0045658469 
   46700  0.004150265 0.0019510759 0.0037668169 
   46800 0.0038536535 0.0021210355 0.0038070089 
   46900 0.0038858948 0.0024768492 0.0041769281 
   47000 0.0047261693 0.0030606983 0.0051283973 
   47100 0.0029495461 0.0028670242 0.0041574506 
   47200 0.0082019903 0.0022719999 0.0058603707 
   47300  0.010057376 0.0024702653 0.0068703672 
   47400  0.004490099 0.0035020911 0.0054665094 
   47500 0.0021219184 0.0035367004 0.0044650397 
   47600 0.0049993902 0.0038725171 0.0060597503 
   47700 0.0046551698 0.0022785217 0.0043151585 
   47800 0.0048504325 0.0017538176 0.0038758818 
   47900   0.00299519 0.0020124673 0.0033228629 
   48000 0.0062740947 0.0010619446  0.003806861 
   48100 0.0064430084 0.0010224571 0.0038412733 
   48200 0.0075285201 0.0010197778 0.0043135054 
   48300 0.0057506153 0.0014655395 0.0039814337 
   48400 0.0058237905 0.0027948097  0.005342718 
   48500 0.0074724093 0.0018876706 0.0051568496 
   48600  0.006506929 0.0012287792 0.0040755607 
   48700  0.005540318 0.0015663131 0.0039902022 
   48800 0.0052982888 0.0022024878 0.0045204891 
   48900 0.0054607389 0.0031136275 0.0055027008 
   49000 0.0070126443 0.0023575994 0.0054256313 
   49100 0.0065567719 0.0018687309 0.0047373186 
   49200 0.0087537809 0.0015630236 0.0053928028 
   49300 0.0069767418 0.0030865456 0.0061388701 
   49400 0.0061427899 0.0023038386 0.0049913092 
   49500 0.0029327492 0.0025507938 0.0038338715 
   49600 0.0058692968 0.0029627647 0.0055305821 
   49700 0.0091902884 0.0025066557 0.0065274069 
   49800 0.0052632237  0.001284924 0.0035875844 
   49900 0.0047376485 0.0010243349 0.0030970562 
   50000 0.0030027819 0.0020307264 0.0033444435 
   50100 0.0070165385 0.0021856566 0.0052553922 
   50200 0.0059921402 0.0014150261 0.0040365875 
   50300  0.005623299 0.0015047577  0.003964951 
   50400 0.0053371963 0.0021529676  0.004487991 
   50500 0.0049530552 0.0017826675 0.0039496291 
   50600 0.0085017193 0.0011719171 0.0048914192 
   50700 0.0023755471 0.0020696773 0.0031089792 
   50800 0.0066237114 0.0017452062 0.0046430799 
   50900  0.002008131 0.0019946986 0.0028732559 
   51000 0.0061062418 0.0021065416 0.0047780223 
   51100 0.0058734147 0.0023910836 0.0049607025 
   51200 0.0070592361 0.0024327318 0.0055211476 
   51300 0.0065543019 0.0013309611 0.0041984682 
   51400  0.004570695 0.0014159133 0.0034155924 
   51500 0.0041954332   0.00163629  0.003471792 
   51600  0.008184792 0.0016025999 0.0051834464 
   51700 0.0057856375  0.002039828 0.0045710443 
   51800 0.0063208554 0.0027993428 0.0055647171 
   51900 0.0054347496 0.0033625846 0.0057402876 
   52000 0.0051574418 0.0034771456 0.0057335264 
   52100 0.0053593967 0.0025103248 0.0048550609 
   52200 0.0092868531 0.0020677495 0.0061307477 
   52300 0.0053980061  0.001272236 0.0036338637 
   52400 0.0066292921  0.001425068 0.0043253833 
   52500 0.0068598042 0.0014817392 0.0044829036 
   52600 0.0065324834 0.0016812971 0.0045392586 
   52700 0.0045511298 0.0021136522 0.0041047715 
   52800 0.0058808735 0.0016330054 0.0042058876 
   52900 0.0036856615 0.0010224046 0.0026348815 
   53000  0.005180178 0.0020079853 0.0042743132 
   53100 0.0085447885 0.0024838647 0.0062222097 
   53200 0.0057107963 0.0029466744 0.0054451478 
   53300 0.0053353578 0.0036456189 0.0059798379 
   53400 0.0079899362 0.0024729878 0.0059685849 
   53500 0.0054556155 0.0031591797 0.0055460115 
   53600 0.0086635562 0.0031402629 0.0069305687 
   53700 0.0074744271 0.0029401805 0.0062102424 
   53800 0.0053138073 0.0037750924 0.0060998831 
   53900 0.0033171356 0.0038265374 0.0052777843 
   54000 0.0057278454 0.0043040648 0.0068099971 
   54100 0.0083659128 0.0043645508 0.0080246376 
   54200 0.0048933131 0.0047007646 0.0068415891 
   54300 0.0075398663   0.00394648 0.0072451715 
   54400 0.0093803137 0.0023371429 0.0064410301 
   54500 0.0057084238 0.0025128783 0.0050103137 
   54600 0.0051577065 0.0022484665 0.0045049631 
   54700 0.0062762591 0.0020670808 0.0048129442 
   54800 0.0074047997 0.0018544276 0.0050940275 
   54900  0.005768001 0.0022672988 0.0047907992 
   55000 0.0050998409 0.0032666882 0.0054978686 
   55100 0.0068737063  0.002392228 0.0053994745 
   55200 0.0048144693 0.0018698526 0.0039761829 
   55300 0.0062265262 0.0024957215 0.0052198267 
   55400 0.0089399809 0.0029752442 0.0068864858 
   55500 0.0032132723  0.003276976 0.0046827827 
   55600 0.0041274222 0.0032603561 0.0050661033 
   55700 0.0055707687  0.002798722 0.0052359333 
   55800 0.0055404202 0.0027713391 0.0051952729 
   55900  0.005399327 0.0029124796 0.0052746851 
   56000 0.0067289224 0.0023387028 0.0052826064 
   56100 0.0046009206 0.0028155189 0.0048284217 
   56200 0.0065730384 0.0024201493 0.0052958536 
   56300  0.012997068 0.0018815619 0.0075677791 
   56400 0.0070608509 0.0024737972 0.0055629195 
   56500  0.004070624 0.0022259068 0.0040068048 
   56600  0.007977937 0.0014855976 0.0049759451 
   56700  0.012246123 0.0017805014 0.0071381801 
   56800 0.0046373673 0.0038627061 0.0058915543 
   56900 0.0025966639 0.0042039123 0.0053399527 
   57000 0.0062307108 0.0020675148 0.0047934507 
   57100 0.0058884274 0.0015697183 0.0041459053 
   57200 0.0062909343 0.0021125175 0.0048648013 
   57300 0.0049808377 0.0016257201 0.0038048365 
   57400 0.0058447951 0.0013748361 0.0039319339 
   57500 0.0062660722 0.0014570373 0.0041984439 
   57600 0.0049070972 0.0019116038 0.0040584588 
   57700 0.0047724539 0.0026107569 0.0046987055 
   57800 0.0026888143  0.003615546 0.0047919023 
   57900 0.0067583371 0.0033471203 0.0063038927 
   58000 0.0050457496  0.004025712 0.0062332274 
   58100 0.0085159074 0.0031639017 0.0068896112 
   58200 0.0065310237 0.0017526766 0.0046099995 
   58300 0.0041102101 0.0020236645 0.0038218814 
   58400 0.0054352308 0.0025152171 0.0048931306 
   58500 0.0041571117 0.0021638229 0.0039825593 
   58600 0.0082778308 0.0023868162 0.0060083672 
   58700 0.0075692629  0.002399333 0.0057108855 
   58800 0.0048640773 0.0027524928 0.0048805266 
   58900 0.0037050971 0.0029657422 0.0045867222 
   59000 0.0035820801 0.0024297128 0.0039968729 
   59100 0.0035163244 0.0027378529 0.0042762449 
   59200 0.0036974668 0.0031256676 0.0047433093 
   59300 0.0069035094 0.0018387548 0.0048590401 
   59400 0.0097417294  0.001790894 0.0060529006 
   59500  0.004527936 0.0018739336 0.0038549056 
   59600 0.0066628401 0.0023081144 0.0052231069 
   59700 0.0055033588 0.0037163682 0.0061240876 
   59800 0.0048239171 0.0030262445 0.0051367083 
   59900  0.003831496 0.0016702411 0.0033465206 
   60000 0.0048074053 0.00072733165 0.0028305715 
   60100 0.0044063989 0.00092684042 0.0028546399 
   60200 0.0056181239 0.0017471053 0.0042050345 
   60300  0.005343343 0.0023748871 0.0047125996 
   60400 0.0040982635 0.0025696704 0.0043626607 
   60500 0.0040094542 0.0020957748  0.003849911 
   60600  0.007936233 0.0020144066 0.0054865085 
   60700 0.0049309729  0.002793518 0.0049508187 
   60800 0.0030188672 0.0030308837 0.0043516381 
   60900  0.005964365 0.0028815457 0.0054909554 
   61000 0.0053674097 0.0025898457 0.0049380875 
   61100  0.004652485 0.0024210299 0.0044564921 
   61200 0.0057235817 0.0027457092 0.0052497763 
   61300 0.0087590157 0.0019622295 0.0057942989 
   61400 0.0059274297 0.0019400038 0.0045332543 
   61500 0.0073522439 0.0019560564  0.005172663 
   61600 0.0060923239  0.001934425 0.0045998167 
   61700 0.0064856686 0.0016376115 0.0044750915 
   61800 0.0046999057 0.0022053371 0.0042615458 
   61900 0.0038566465 0.0025326419 0.0042199248 
   62000 0.0052795381  0.001496616 0.0038064139 
   62100 0.0049079465 0.0019056398 0.0040528664 
   62200 0.0059565943  0.002059138  0.004665148 
   62300 0.0058983694 0.0015294271 0.0041099637 
   62400 0.0029440973 0.0016707518 0.0029587944 
   62500 0.0068724455 0.0018315044 0.0048381993 
   62600 0.0048492932 0.0034042743 0.0055258401 
   62700 0.0043075931 0.0036444764 0.0055290484 
   62800 0.0039216114 0.0030989974 0.0048147024 
   62900 0.0052228373 0.0026525598 0.0049375512 
   63000 0.0025209169 0.0029714689   0.00407437 
   63100 0.0033221346  0.002566988 0.0040204219 
   63200 0.0039828505 0.0022198163 0.0039623134 
   63300   0.00534718 0.0016550329 0.0039944242 
   63400 0.0061482507 0.0019801461 0.0046700058 
   63500  0.005131518 0.0016825813 0.0039276204 
   63600 0.0050916426 0.0016673957 0.0038949893 
   63700 0.0053457711 0.0020832216 0.0044219964 
   63800 0.0027476275 0.0024978072 0.0036998943 
   63900 0.0026665689  0.001614606 0.0027812299 
   64000 0.0028522967 0.0014907262 0.0027386059 
   64100 0.0035503617 0.0019702601 0.0035235434 
   64200  0.002124973 0.0021693159 0.0030989916 
   64300 0.0059464509 0.0021884181 0.0047899904 
   64400 0.0074167065 0.0017162802 0.0049610893 
   64500 0.0042874621 0.0017361914 0.0036119561 
   64600 0.0046597748 0.0016702504 0.0037089018 
   64700 0.0028702635 0.0020764382 0.0033321785 
   64800 0.0040421898 0.0018154212 0.0035838793 
   64900 0.0036211408 0.0018777818 0.0034620309 
   65000 0.0037087103 0.0019301819 0.0035527427 
   65100 0.0082542743 0.0028920811 0.0065033262 
   65200 0.0037319527 0.0028908452 0.0045235745 
   65300 0.0092104992 0.0031697453 0.0071993387 
   65400 0.0049398711 0.0031724671 0.0053336607 
   65500 0.0049162534 0.0031334867 0.0052843476 
   65600 0.0061911654 0.0033558669 0.0060645018 
   65700 0.0082229519 0.0028892759 0.0064868174 
   65800 0.0079314829 0.0026147843  0.006084808 
   65900 0.0076882142 0.0022668846 0.0056304783 
   66000  0.004489641 0.0018846537 0.0038488716 
   66100 0.0062468776 0.0014950374 0.0042280463 
   66200 0.0053998581 0.0022073554 0.0045697933 
   66300 0.0040663472 0.0034944393 0.0052734662 
   66400  0.012587604 0.0019321537 0.0074392304 
   66500 0.0063045253  0.002946607 0.0057048369 
   66600 0.0026893714 0.0029182161 0.0040948161 
   66700 0.0030905776 0.0024942715 0.0038463991 
   66800 0.0066021385 0.0029171664  0.005805602 
   66900 0.0075725534 0.0034859722 0.0067989643 
   67000 0.0040213587 0.0033041554 0.0050634998 
   67100 0.0086547862 0.0023505665 0.0061370355 
   67200  0.010119845 0.0013907007 0.0058181329 
   67300 0.0098279039 0.0024365934 0.0067363014 
   67400 0.0095613538 0.0016186953 0.0058017876 
   67500 0.0040978041 0.0011281203 0.0029209096 
   67600 0.0089704011 0.0023617394 0.0062862899 
   67700  0.012295982 0.0025497167 0.0079292086 
   67800  0.012764218 0.0026775501 0.0082618955 
   67900 0.0074342125 0.0034744191 0.0067268871 
   68000 0.0080061576 0.0035322167 0.0070349106 
   68100 0.0041504729 0.0027426613 0.0045584932 
   68200   0.00724327 0.0011067351 0.0042756657 
   68300 0.0029134659 0.0018934286   0.00316807 
   68400 0.0028203867 0.0021523941 0.0033863133 
   68500 0.0080890315 0.0015986007  0.005137552 
   68600  0.011592658 0.0012198372 0.0062916248 
   68700 0.0038234986  0.002176499 0.0038492796 
   68800 0.0038520727 0.0025837983 0.0042690801 
   68900 0.0050613898 0.0017285205 0.0039428786 
   69000 0.0062430265 0.0010683858 0.0037997099 
   69100 0.0043457453 0.0010745001 0.0029757636 
   69200 0.0048188371 0.0011890707 0.0032973119 
   69300 0.0083822163 0.0023135988 0.0059808184 
   69400 0.0074648588 0.0034555926 0.0067214683 
   69500 0.0036725123 0.0025219566 0.0041286808 
   69600 0.0048654378 0.0025843358 0.0047129649 
   69700 0.0076774577 0.0028568809 0.0062157686 
   69800 0.0054504868 0.0018569727 0.0042415607 
   69900 0.0051615348 0.0015102169 0.0037683884 
   70000 0.0040531025 0.0024094612 0.0041826935 
   70100 0.0041583745 0.0027594821  0.004578771 
   70200 0.0041951423  0.001566705 0.0034020797 
   70300 0.0038277911 0.0017115625 0.0033862211 
   70400 0.0046330309 0.0021006368 0.0041275878 
   70500  0.004740569 0.0026159829 0.0046899819 
   70600  0.006740367 0.0025790944 0.0055280049 
   70700 0.0078151828 0.0023578491 0.0057769916 
   70800 0.0063225492 0.0019838575 0.0047499727 
   70900 0.0033183069 0.0016631359 0.0031148952 
   71000 0.0069301101 0.0014074058 0.0044393289 
   71100 0.0023602979 0.0025300452 0.0035626755 
   71200 0.0046772261 0.0022373313 0.0042836177 
   71300 0.0065806273 0.0019274252 0.0048064496 
   71400 0.0046033105 0.0023302958 0.0043442442 
   71500 0.0035544095 0.0023913212 0.0039463754 
   71600 0.0075171684 0.0025562665 0.0058450277 
   71700 0.0050152169 0.0036855724 0.0058797298 
   71800 0.0049361001 0.0042658324 0.0064253762 
   71900 0.0070253655 0.0036360855 0.0067096829 
   72000 0.0039596315 0.0031844571 0.0049167959 
   72100 0.0075889547 0.0028500744 0.0061702421 
   72200 0.0069025288 0.0033963759 0.0064162323 
   72300 0.0084107436 0.0033882264 0.0070679268 
   72400 0.0044730881  0.003398264   0.00535524 
   72500 0.0059807008 0.0038176546 0.0064342112 
   72600 0.0053116655 0.0038689883  0.006192842 
   72700 0.0078994556 0.0040914006 0.0075474124 
   72800 0.0061972537 0.0048370309 0.0075483294 
   72900 0.0040540513 0.0051916678 0.0069653152 
   73000 0.0059134132 0.0053250619 0.0079121802 
   73100 0.0035322842 0.0050304145 0.0065757888 
   73200 0.0070700422 0.0025359829 0.0056291264 
   73300  0.004391852 0.0024220486 0.0043434839 
   73400 0.0051126328 0.0017832058 0.0040199827 
   73500 0.0052821007 0.0017717268 0.0040826459 
   73600 0.0040619739 0.0040091145 0.0057862281 
   73700 0.0050610788 0.0052341632 0.0074483851 
   73800 0.0055888161 0.0028551506 0.0053002576 
   73900 0.0065067012 0.0023865049 0.0052331867 
   74000 0.0034572754 0.0027920302 0.0043045882 
   74100 0.0037276418 0.0022890901 0.0039199334 
   74200 0.0032987143 0.0017343796 0.0031775672 
   74300 0.0057365143 0.0025889175 0.0050986425 
   74400 0.0050588126 0.0034563363 0.0056695669 
   74500 0.0040883935 0.0023771333 0.0041658055 
   74600 0.0049801882    0.0024209 0.0045997324 
   74700 0.0058997365 0.0023080943  0.004889229 
   74800 0.0031662059 0.0024989843 0.0038841994 
   74900 0.0051721708 0.0022317303  0.004494555 
   75000 0.0036110353  0.002390751  0.003970579 
   75100 0.0038597023 0.0019930508 0.0036816706 
   75200 0.0060574197 0.0014600702 0.0041101913 
   75300 0.0045817459 0.0020229535 0.0040274673 
   75400 0.0033395136 0.0019938845 0.0034549217 
   75500 0.0055943676 0.0014320057 0.0038795415 
   75600 0.0052252586 0.0012827813 0.0035688319 
   75700 0.0034007574 0.0016636194 0.0031514508 
   75800 0.0074429319 0.0011484793 0.0044047619 
   75900 0.0056334168 0.0014564421  0.003921062 
   76000 0.0048011785 0.0017573083 0.0038578239 
   76100 0.0042955445  0.001983687 0.0038629877 
   76200 0.0047159037 0.0017608983 0.0038241061 
   76300 0.0014921296 0.0014578076 0.0021106143 
   76400 0.0028706492 0.0013024438 0.0025583528 
   76500 0.0058760024 0.0013414147 0.0039121657 
   76600 0.0067154793 0.0012267893 0.0041648115 
   76700 0.0043307504 0.0011850772 0.0030797805 
   76800 0.0035274437 0.0015441588 0.0030874154 
   76900 0.0030662667 0.0017334866 0.0030749783 
   77000 0.0055494437 0.0018917408 0.0043196224 
   77100 0.0097052969 0.0021761924 0.0064222598 
   77200 0.0075624672 0.0025438625 0.0058524419 
   77300 0.0083080304 0.0030371255 0.0066718888 
   77400 0.0069286329 0.0025578535 0.0055891304 
   77500 0.0071339682 0.0018418499  0.004962961 
   77600 0.0040389619 0.0015834926 0.0033505385 
   77700 0.0036312568 0.0015597925 0.0031484673 
   77800 0.0034409843 0.0021710739 0.0036765045 
   77900 0.0043156046 0.0024926386 0.0043807156 
   78000 0.0041246523 0.0025067057 0.0043112411 
   78100 0.0040620107 0.0021770257 0.0039541554 
   78200 0.0042184433 0.0016683341 0.0035139031 
   78300 0.0022088773 0.0016220662 0.0025884501 
   78400 0.0049927929 0.0019305108 0.0041148577 
   78500  0.004876562 0.0029303461  0.005063842 
   78600 0.0045204198 0.0032248127 0.0052024964 
   78700 0.0040047357  0.004443428 0.0061954999 
   78800 0.0092884229 0.0030636349 0.0071273199 
   78900 0.0071488464 0.0015875558 0.0047151761 
   79000  0.005741566 0.0011867308 0.0036986659 
   79100 0.0059534529 0.0013004318 0.0039050675 
   79200 0.0084742598 0.0016806455 0.0053881341 
   79300 0.0046095636 0.0011962167 0.0032129007 
   79400 0.0053496409 0.0016922246 0.0040326926 
   79500 0.0054086553 0.0024685102 0.0048347969 
   79600 0.0037408039 0.0026019893  0.004238591 
   79700 0.0045863664 0.0021509925 0.0041575278 
   79800 0.0054889141 0.00087364834 0.0032750483 
   79900  0.003779941 0.00080298841 0.0024567126 
   80000 0.0070878652 0.0013862221 0.0044871632 
   80100 0.0085729714 0.0011519936 0.0049026686 
   80200 0.0068903897 0.0022740399 0.0052885854 
   80300 0.0064002287 0.0038106554 0.0066107555 
   80400  0.012655677 0.0043104376  0.009847296 
   80500 0.0083268227 0.0051306937 0.0087736786 
   80600 0.0093692287 0.0039634816 0.0080625192 
   80700 0.0064893135 0.0027403569 0.0055794316 
   80800 0.0052977275 0.0017580251 0.0040757809 
   80900 0.0052975785 0.0025681992 0.0048858897 
   81000 0.0048752043 0.0040995659 0.0062324677 
   81100 0.0043645276 0.0027273335 0.0046368144 
   81200 0.0029355731 0.0026717812 0.0039560945 
   81300 0.0024584577 0.0031186538  0.004194229 
   81400 0.0072075836 0.0030501613 0.0062034791 
   81500  0.006672342 0.0024113988 0.0053305485 
   81600 0.0053438499 0.00099716052 0.0033350949 
   81700  0.005065014 0.00097511374 0.0031910574 
   81800 0.0019926162 0.0014625778 0.0023343474 
   81900 0.0023010119 0.0010259713  0.002032664 
   82000  0.008229306 0.00073006863   0.00433039 
   82100 0.0053898003 0.0014732461 0.0038312837 
   82200 0.0050713435  0.002128376 0.0043470888 
   82300 0.0019909965  0.002902873  0.003773934 
   82400 0.0045760901 0.0022223297 0.0042243691 
   82500  0.004897952 0.0022952459 0.0044380999 
   82600 0.0038100649 0.0019367252 0.0036036286 
   82700 0.0025986213 0.0013513719 0.0024882687 
   82800 0.0090230802 0.0021957844  0.006143382 
   82900 0.0057330676 0.0025515181 0.0050597352 
   83000 0.0024057777 0.0029182791 0.0039708068 
   83100  0.005905546 0.0020448118 0.0046284882 
   83200 0.0049164695 0.0021645287 0.0043154841 
   83300  0.005615022 0.0019267833 0.0043833555 
   83400  0.003839066  0.002225731 0.0039053224 
   83500 0.0028762835  0.002142012  0.003400386 
   83600 0.0039184742 0.0023548011 0.0040691335 
   83700 0.0042373953 0.0022701567 0.0041240172 
   83800 0.0037175884 0.0031200143 0.0047464592 
   83900 0.0051186355 0.0033566153 0.0055960183 
   84000 0.0056461609 0.0036032266  0.006073422 
   84100 0.0041628525 0.0038248715 0.0056461195 
   84200 0.0061225952 0.0037263162 0.0064049516 
   84300   0.00394268 0.0036974078 0.0054223303 
   84400  0.007005048 0.0028190617 0.0058837702 
   84500 0.0058963489 0.0013321023 0.0039117549 
   84600  0.006160242 0.0020634564 0.0047585623 
   84700 0.0078547001 0.0024656003 0.0059020316 
   84800 0.0052967482 0.0026260948 0.0049434221 
   84900 0.0040594088  0.003251731 0.0050277223 
   85000 0.0026231596 0.0032207541 0.0043683865 
   85100 0.0032372533 0.0031209192 0.0045372175 
   85200 0.0069072546 0.0026577236 0.0056796475 
   85300 0.0055730553 0.0018812229 0.0043194345 
   85400 0.0082297466 0.0018445783 0.0054450924 
   85500 0.0069145062 0.0027943839 0.0058194804 
   85600 0.0070326985 0.0015526789 0.0046294845 
   85700 0.0058636062 0.0021495693  0.004714897 
   85800 0.0049635221 0.0040415273 0.0062130682 
   85900 0.0060288204 0.0046207466 0.0072583555 
   86000 0.0059068209 0.0025902155 0.0051744496 
   86100 0.0063515824 0.0010993766 0.0038781939 
   86200 0.0035310599 0.00087896652 0.0024238052 
   86300 0.0047410064 0.0013735219 0.0034477122 
   86400 0.0046436539 0.0022477872 0.0042793858 
   86500 0.0065842077 0.0032105184 0.0060911093 
   86600 0.0094206729 0.0028451761 0.0069667205 
   86700 0.0083157674 0.0029882678 0.0066264161 
   86800 0.0048635973 0.0034665126 0.0055943365 
   86900  0.011957933  0.002343881 0.0075754766 
   87000 0.0071219922 0.0017377509 0.0048536225 
   87100 0.0075633046 0.00099384102 0.0043027868 
   87200 0.0034857287 0.0013478799 0.0028728862 
   87300  0.005423923   0.00133514 0.0037081063 
   87400  0.003002352 0.0015672482 0.0028807772 
   87500 0.0060982298 0.0018031826 0.0044711581 
   87600 0.0076179962 0.0021859778 0.0055188511 
   87700 0.0052283365 0.0025274169 0.0048148142 
   87800 0.0076134433 0.0020936129 0.0054244943 
   87900  0.006226162 0.0025824119 0.0053063578 
   88000 0.0071322076 0.0033402361 0.0064605769 
   88100 0.0031513595 0.0027838823 0.0041626021 
   88200  0.007751633 0.0025002335 0.0058915729 
   88300 0.0067812332 0.0035424019 0.0065091914 
   88400  0.010689234 0.0031891642 0.0078657039 
   88500 0.0079065429 0.0019783826 0.0054374951 
   88600  0.006430912 0.0022536728 0.0050671968 
   88700 0.0039580969 0.0025695215 0.0043011889 
   88800 0.0053932882 0.0020546344  0.004414198 
   88900 0.0031519953 0.0022431497 0.0036221477 
   89000 0.0040677498 0.0029217673 0.0047014079 
   89100 0.0065559907 0.0027536523 0.0056218982 
   89200 0.0065066245 0.0032876035 0.0061342517 
   89300 0.0029917625 0.0023176149  0.003626511 
   89400 0.0032801979 0.0017747376 0.0032098242 
   89500 0.0090605677 0.0013662075 0.0053302059 
   89600   0.00529021  0.002153681 0.0044681479 
   89700 0.0045908802 0.0012273488 0.0032358589 
   89800 0.0045505007 0.0011727692 0.0031636132 
   89900 0.0042655366 0.0012247348  0.003090907 
   90000 0.0048790847 0.0014236313 0.0035582309 
   90100 0.0067760312 0.0021342955 0.0050988091 
   90200 0.0079809838  0.002523684 0.0060153644 
   90300 0.0070229013 0.0030089567  0.006081476 
   90400  0.003917442 0.0026545434 0.0043684243 
   90500 0.0078593299 0.0026807482  0.006119205 
   90600  0.003329591 0.0033343545 0.0047910506 
   90700 0.0045359871 0.0034368648 0.0054213591 
   90800 0.0033803903  0.002688208 0.0041671288 
   90900 0.0040740093 0.0015891017 0.0033714808 
   91000 0.0020241419 0.0016345554 0.0025201175 
   91100 0.0054310901 0.0010297385 0.0034058404 
   91200 0.0046088397 0.0012853149 0.0033016823 
   91300 0.0017296845 0.0019025554 0.0026592924 
   91400 0.0044837861 0.0018351323 0.0037967887 
   91500 0.0069259265  0.002372718 0.0054028109 
   91600 0.0054661135  0.003322579 0.0057140036 
   91700 0.0041094721 0.0046626297 0.0064605237 
   91800  0.007289297  0.003905023 0.0070940904 
   91900 0.0074801142 0.0032052902 0.0064778402 
   92000 0.0032825513 0.0034211778  0.004857294 
   92100 0.0052500412 0.0022541616 0.0045510546 
   92200 0.0032447518 0.0015033396 0.0029229185 
   92300 0.0079369036 0.0012253165 0.0046977118 
   92400 0.0055452632 0.0010971311 0.0035231837 
   92500 0.0062096566 0.0019804935 0.0046972182 
   92600 0.0037434728 0.0029823238 0.0046200932 
   92700 0.0067688073 0.0020082113 0.0049695645 
   92800 0.0082838662 0.0023055505  0.005929742 
   92900 0.0044215418 0.0032848179 0.0052192425 
   93000 0.0031731778 0.0042368238 0.0056250891 
   93100 0.0027026569 0.0046286587 0.0058110711 
   93200 0.0041759992 0.0039174902 0.0057444899 
   93300 0.0052927657 0.0037208295 0.0060364145 
   93400 0.0072687791 0.0031671396 0.0063472305 
   93500 0.0082159231 0.0018135074 0.0054079738 
   93600 0.0060753841 0.0019641048 0.0046220853 
   93700  0.003288968 0.0024303332 0.0038692567 
   93800   0.00965166 0.0018682966 0.0060908978 
   93900 0.0043138594 0.0017663727 0.0036536862 
   94000 0.0043250615 0.0019789327 0.0038711471 
   94100 0.0075281913 0.0016838426 0.0049774263 
   94200  0.011548589 0.0022129515 0.0072654592 
   94300 0.0045729833 0.0032727176 0.0052733978 
   94400  0.007853682 0.0032495115 0.0066854973 
   94500  0.010536896 0.0035405343 0.0081504264 
   94600 0.0072768807 0.0033129668 0.0064966021 
   94700 0.0060876404 0.0035574829 0.0062208256 
   94800 0.0051739968 0.0027077882 0.0049714118 
   94900  0.005723439 0.0023636254   0.00486763 
   95000 0.0058334332 0.0014698247 0.0040219517 
   95100 0.0047100414 0.0019581893 0.0040188324 
   95200  0.006308508 0.0028072533 0.0055672255 
   95300 0.0044614006 0.0024918297 0.0044436924 
   95400  0.007695141 0.0012429968  0.004609621 
   95500 0.0026819126 0.0012302328 0.0024035696 
   95600 0.0087713074 0.00066324719 0.0045006942 
   95700 0.0035258926 0.00053466064 0.0020772387 
   95800 0.0049487773 0.0012902622 0.0034553522 
   95900  0.003493934 0.0014739278 0.0030025239 
   96000 0.0077352426 0.0014323545 0.0048165231 
   96100 0.0082187486 0.0015310629 0.0051267654 
   96200 0.0046235635 0.0021811997 0.0042040087 
   96300 0.0047592077 0.0028328326 0.0049149859 
   96400 0.0057461004 0.0029889282 0.0055028471 
   96500 0.0047645661 0.0024141845 0.0044986822 
   96600 0.0057797136 0.0024520391 0.0049806638 
   96700 0.0032152385  0.002106612 0.0035132789 
   96800 0.0047513687 0.0022316961 0.0043104199 
   96900 0.0074234197 0.0019276243 0.0051753704 
   97000  0.006529965 0.0027996475 0.0056565072 
   97100 0.0024017322  0.004572577 0.0056233348 
   97200 0.0088562103 0.0030024879 0.0068770799 
   97300 0.0086493602 0.0010870235 0.0048711186 
   97400 0.0039185283 0.0017906692 0.0035050253 
   97500 0.0031173483 0.0022577641  0.003621604 
   97600  0.008296463 0.0031179057 0.0067476083 
   97700 0.0023855412 0.0037058011 0.0047494754 
   97800 0.0056234098 0.0024578497 0.0049180915 
   97900  0.005270464 0.0014902354 0.0037960634 
   98000 0.0071788194 0.0019069549 0.0050476884 
   98100 0.0036038638 0.0024623088 0.0040389993 
   98200 0.0052164986 0.0030560888 0.0053383069 
   98300 0.0090841125 0.0025646169 0.0065389161 
   98400 0.0054373011 0.0019056129 0.0042844322 
   98500  0.003598659 0.0020287996 0.0036032129 
   98600 0.0070499109 0.0016236344 0.0047079704 
   98700  0.010226646 0.00073406628  0.005208224 
   98800  0.007136599 0.0019787786 0.0051010407 
   98900 0.0070837696 0.0019318378  0.005030987 
   99000 0.0056524228 0.0031897546 0.0056626896 
   99100 0.0053224891 0.0029853178 0.0053139068 
   99200 0.0059292389 0.0032416794 0.0058357215 
   99300  0.012072676  0.001936313 0.0072181088 
   99400 0.0079310077 0.0014458506 0.0049156665 
   99500 0.0037581841 0.0028571076 0.0045013131 
   99600 0.0040934754 0.0028069104 0.0045978058 
   99700  0.004466823 0.0025620395 0.0045162746 
   99800 0.0045945008 0.0026159908 0.0046260849 
   99900 0.0029899846 0.0032054171 0.0045135354 
  100000 0.0080404275 0.0030002479  0.006517935 
  100100 0.0071624962  0.002235514 0.0053691061 
  100200 0.0044999868 0.0017227987  0.003691543 
  100300 0.0073383774 0.00086048049 0.0040710206 
  100400  0.003823197 0.0017274653  0.003400114 
  100500 0.0054379927 0.0025845561 0.0049636779 
  100600 0.0033472725  0.001873999 0.0033384307 
  100700 0.0074008899 0.0013161485 0.0045540378 
  100800 0.0050219785 0.0009950082 0.0031921238 
  100900 0.0060927564 0.00069524295 0.0033608239 
  101000 0.0041973614 0.0011257262 0.0029620718 
  101100  0.003565045 0.0015828664 0.0031425735 
  101200  0.008948487 0.0010139278 0.0049288909 
  101300 0.0055381125 0.0013639287 0.0037868529 
  101400 0.0048802132 0.0006805979 0.0028156912 
  101500 0.0042959261 0.00075456327 0.0026340309 
  101600 0.0074796592 0.0011685571  0.004440908 
  101700 0.0022027305 0.0028924337 0.0038561283 
  101800 0.0052212579 0.0032067072 0.0054910075 
  101900 0.0066462347 0.0024485741 0.0053563018 
  102000  0.006877804 0.0016607175 0.0046697568 
  102100 0.0048972126 0.00096480326 0.0031073338 
  102200 0.0069610403 0.0013658611 0.0044113162 
  102300 0.0026962223 0.0018171042 0.0029967015 
  102400 0.0061712361 0.0010865353 0.0037864511 
  102500 0.0025841602 0.0010372846 0.0021678547 
  102600  0.003446089 0.0011291151 0.0026367791 
  102700 0.0032848206 0.0019939027 0.0034310117 
  102800 0.0060459878   0.00192156 0.0045666797 
  102900 0.0048048902 0.0019973432 0.0040994827 
  103000 0.0075119405 0.0015558071 0.0048422811 
  103100 0.0062938262 0.00074258623 0.0034961352 
  103200 0.0029414954 0.00060060319 0.0018875074 
  103300 0.0083624388 0.0017932303 0.0054517972 
  103400 0.0036324105 0.0016009468 0.0031901264 
  103500  0.005684043 0.0013473394 0.0038341082 
  103600  0.005099152 0.0012721491  0.003503028 
  103700 0.0046360268 0.0018238623  0.003852124 
  103800 0.0035934383  0.001869107 0.0034412363 
  103900  0.007406343 0.00093727988  0.004177555 
  104000 0.0074467114 0.0034043141 0.0066622503 
  104100  0.003947952  0.003101845  0.004829074 
  104200 0.0034324968  0.002220073 0.0037217904 
  104300 0.0045492477 0.0023089972 0.0042992931 
  104400 0.0023279564 0.0026722191    0.0036907 
  104500  0.008649551 0.0018735975  0.005657776 
  104600 0.0058841387 0.0012604707 0.0038347814 
  104700 0.0052287173 0.0016044832  0.003892047 
  104800 0.0062278591 0.0011602044 0.0038848927 
  104900 0.0087375904 0.0016337406 0.0054564364 
  105000 0.0059200208 0.0028457908 0.0054357999 
  105100 0.0064318574 0.0021837696 0.0049977072 
  105200 0.0066366003 0.0023216359 0.0052251486 
  105300 0.0081708946 0.0020577587 0.0056325251 
  105400 0.0069255582 0.0027094049 0.0057393367 
  105500 0.0079202255 0.0033472879 0.0068123865 
  105600  0.006174281 0.0033707142 0.0060719622 
  105700 0.0036009544 0.0022602448 0.0038356623 
  105800 0.0071951087 0.0020524128 0.0052002729 
  105900 0.0048021544 0.0027973804 0.0048983229 
  106000 0.0057453387  0.002012052 0.0045256377 
  106100 0.0081860852 0.0014684593 0.0050498716 
  106200 0.0078905302 0.0014686609 0.0049207678 
  106300 0.0066103123 0.0023754396 0.0052674513 
  106400 0.0056585511 0.0026005719  0.005076188 
  106500 0.0042942596 0.0029381923 0.0048169309 
  106600 0.0061498905 0.0022587382 0.0049493153 
  106700 0.0035072683 0.0019190731 0.0034535029 
  106800 0.0051305687 0.0014714449 0.0037160688 
  106900 0.0048716405 0.0017993898 0.0039307325 
  107000 0.0040772448 0.0030353623 0.0048191569 
  107100 0.0045595729 0.0033831358  0.005377949 
  107200 0.0079882337 0.0022488797 0.0057437319 
  107300 0.0053427401  0.002491867 0.0048293158 
  107400 0.0050456488 0.0015510171 0.0037584884 
  107500 0.0042604818 0.0021047338 0.0039686946 
  107600 0.0076610354 0.0023617016 0.0057134046 
  107700 0.0097143765 0.0019731436 0.0062231833 
  107800 0.0072554766 0.0019875223 0.0051617933 
  107900 0.0046312411 0.0027389597 0.0047651277 
  108000 0.0048685343 0.0033745627 0.0055045464 
  108100 0.0052738286 0.0025854259 0.0048927259 
  108200 0.0050233749 0.0017750977 0.0039728242 
  108300 0.0055068199 0.0013182683  0.003727502 
  108400 0.0073487684 0.0014936111 0.0047086973 
  108500 0.0062516333 0.0013064049 0.0040414945 
  108600  0.004004311 0.0011456628 0.0028975489 
  108700 0.0043910661 0.0014763599 0.0033974514 
  108800 0.0039710205  0.002238994 0.0039763155 
  108900 0.0044415872 0.0027166262 0.0046598206 
  109000 0.0089262506 0.0023672982 0.0062725328 
  109100  0.010085237 0.0018733287 0.0062856199 
  109200 0.0074336673 0.0017547241 0.0050069536 
  109300 0.0047024673 0.0024323528 0.0044896822 
  109400 0.0060964323 0.00095262983  0.003619819 
  109500 0.0051028835 0.00077391764 0.0030064292 
  109600 0.0077699777 0.0020881837 0.0054875489 
  109700 0.0067669423 0.0018961944 0.0048567317 
  109800  0.008530869 0.00068990238 0.0044221576 
  109900 0.0061129217 0.0009329294 0.0036073327 
  110000 0.0042526885 0.00081419067 0.0026747419 
  110100 0.0044655815 0.0011009762 0.0030546681 
  110200 0.0024807637 0.0024320908 0.0035174249 
  110300 0.0052488971  0.001789928 0.0040863205 
  110400 0.0057908397  0.001104728 0.0036382204 
  110500 0.0068578396 0.0011790121 0.0041793169 
  110600 0.0056970608 0.0012802753 0.0037727394 
  110700 0.0052472146 0.0020748944 0.0043705508 
  110800 0.0059042362 0.0023474329 0.0049305362 
  110900 0.0096365001 0.0014668236 0.0056827923 
  111000 0.0064871592 0.0012495267 0.0040876588 
  111100  0.006008971 0.0013682902  0.003997215 
  111200 0.0051073409 0.0010031221 0.0032375838 
  111300 0.0047436398 0.0012917164 0.0033670588 
  111400 0.0078809829 0.0024756007 0.0059235307 
  111500  0.006059942 0.0035218031 0.0061730277 
  111600 0.0074786949 0.0025145558 0.0057864848 
  111700 0.0057498129 0.0026490478 0.0051645909 
  111800 0.0023863204 0.0023815108  0.003425526 
  111900 0.0092222892 0.0016500576 0.0056848092 
  112000 0.0055603056 0.0018836494 0.0043162831 
  112100  0.006490163  0.001058161 0.0038976073 
  112200 0.0046159935 0.0006452297 0.0026647269 
  112300  0.002080595 0.0014874606 0.0023977209 
  112400 0.0038867052 0.0012745193 0.0029749529 
  112500 0.0055687958 0.0010459657 0.0034823139 
  112600 0.0054574961 0.0015497295 0.0039373841 
  112700 0.0053084319 0.0029369181 0.0052593571 
  112800   0.01102913 0.0030865746 0.0079118188 
  112900 0.0082172826 0.0015134165 0.0051084776 
  113000 0.0075495013 0.0018182176 0.0051211244 
  113100  0.002055883 0.0022560017 0.0031554505 
  113200 0.0058210685 0.0016249891 0.0041717066 
  113300  0.002422286 0.0016339164 0.0026936666 
  113400 0.0048670946 0.0023264059 0.0044557598 
  113500 0.0043364163 0.0030252014 0.0049223836 
  113600 0.0064287705 0.0021016675 0.0049142546 
  113700  0.004323529   0.00114755 0.0030390939 
  113800 0.0062077124 0.0021517986 0.0048676728 
  113900 0.0043798021 0.0036177336  0.005533897 
  114000 0.0095269536 0.0023778378   0.00654588 
  114100 0.0051629296 0.0031262355 0.0053850172 
  114200 0.0060818709 0.0037497011 0.0064105197 
  114300 0.0042519097 0.0031602476 0.0050204581 
  114400 0.0069090205 0.0019337476 0.0049564441 
  114500 0.0056104964 0.0021733172 0.0046279094 
  114600 0.0072602606 0.0025538235 0.0057301875 
  114700 0.0061551263 0.0025189771 0.0052118449 
  114800 0.0074784953 0.0016204748 0.0048923165 
  114900 0.0044953571 0.0024029545 0.0043696733 
  115000 0.0055674362 0.0029521673 0.0053879207 
  115100 0.0032691119 0.0025450018 0.0039752383 
  115200 0.0050600112 0.0023166132 0.0045303681 
  115300 0.0064425648 0.0019005911 0.0047192132 
  115400  0.005993706   0.00259044 0.0052126863 
  115500  0.002940948 0.0030766032  0.004363268 
  115600 0.0051898867 0.0023862254 0.0046568008 
  115700 0.0087822563 0.0028359271 0.0066781642 
  115800  0.003798184 0.0025453111 0.0042070166 
  115900 0.0052051277 0.0024297885 0.0047070319 
  116000 0.0050538855  0.002324192 0.0045352669 
  116100 0.0050659709 0.0015777673 0.0037941296 
  116200 0.0045802032 0.0010656489 0.0030694878 
  116300 0.0092953151  0.001379939 0.0054466393 
  116400 0.0033885579  0.001791501 0.0032739951 
  116500  0.011167356 0.00095730084 0.0058430193 
  116600 0.0059428003 0.0035145369 0.0061145121 
  116700  0.009531931  0.004532253 0.0087024728 
  116800 0.0067626098 0.0027513245 0.0057099663 
  116900 0.0075895067 0.0017621696 0.0050825788 
  117000 0.0030466328 0.0014940051  0.002826907 
  117100 0.0031127801 0.0019581579 0.0033199992 
  117200 0.0045948802 0.0016649631 0.0036752231 
  117300 0.0087708548 0.0012620374 0.0050992864 
  117400 0.0024746293 0.0013543725 0.0024370228 
  117500 0.0082234863 0.0015301562 0.0051279314 
  117600 0.0026728346 0.0029142507 0.0040836158 
  117700 0.0068576187 0.0021509859 0.0051511941 
  117800 0.0051429978 0.00096891027 0.0032189718 
  117900 0.0041283286 0.00090301734 0.0027091611 
  118000 0.0044050187 0.0015072024 0.0034343981 
  118100 0.0055603236 0.0021870849 0.0046197265 
  118200 0.0039904623  0.002254931 0.0040007583 
  118300 0.0050880008 0.00094642624 0.0031724266 
  118400 0.0027138442 0.00060004275 0.0017873496 
  118500 0.0053381954 0.00073842951   0.00307389 
  118600 0.0074048381 0.0010109279 0.0042505445 
  118700 0.0060111558 0.00080531835  0.003435199 
  118800 0.0035177624 0.0014703181 0.0030093392 
  118900 0.0039953188 0.0012195223 0.0029674742 
  119000 0.0036247203  0.001580988 0.0031668032 
  119100 0.0081018707 0.0028962756  0.006440844 
  119200 0.0061275233 0.0033498535  0.006030645 
  119300 0.0064604061 0.0022070628 0.0050334905 
  119400 0.0067877674 0.0013512908 0.0043209391 
  119500 0.0055680721 0.0018087219 0.0042447534 
  119600 0.0061238969 0.0022632688 0.0049424737 
  119700 0.0047098252 0.0031381742 0.0051987228 
  119800 0.0069893841 0.0035852565  0.006643112 
  119900 0.0074276985 0.0032157529  0.006465371 
  120000   0.00445542 0.0035482028  0.005497449 
  120100 0.0066390608 0.0023154308 0.0052200199 
  120200  0.005146132 0.0025498256 0.0048012583 
  120300 0.0050212207 0.0026983341 0.0048951182 
  120400 0.0070037857 0.0025292619 0.0055934181 
  120500 0.0036627359 0.0020101428 0.0036125898 
  120600 0.0054369661 0.0019597783  0.004338451 
  120700 0.0042157947  0.002411893 0.0042563032 
  120800 0.0053601317 0.0023880053 0.0047330629 
  120900 0.0048191604 0.0024312764 0.0045396591 
  121000 0.0051311583 0.0026915068 0.0049363886 
  121100 0.0052348079 0.0032504474 0.0055406758 
  121200 0.0058504267 0.0032818895 0.0058414512 
  121300 0.0053146467 0.0039844524 0.0063096103 
  121400 0.0073009853 0.0031875448 0.0063817259 
  121500 0.0062308154 0.0018088199 0.0045348017 
  121600 0.0047327704 0.0027580686 0.0048286556 
  121700 0.0050138244 0.0030256149  0.005219163 
  121800  0.011552396  0.002067612 0.0071217851 
  121900  0.010826694 0.0021573235 0.0068940019 
  122000 0.0056200981 0.0020448981  0.004503691 
  122100 0.0017200225 0.0018063754 0.0025588853 
  122200 0.0029396326 0.0022933516 0.0035794409 
  122300 0.0079741598 0.0027389907 0.0062276856 
  122400 0.0080397889 0.00094044869 0.0044578563 
  122500 0.0034665064 0.0016099029 0.0031264995 
  122600 0.0060561704 0.0015285824  0.004178157 
  122700 0.0055498253 0.0022024758 0.0046305244 
  122800 0.0093103943 0.0024480653 0.0065213628 
  122900 0.0057547215 0.0023776989 0.0048953895 
  123000 0.0043037454 0.0020072934  0.003890182 
  123100 0.0041848559 0.0021442931 0.0039751675 
  123200   0.00552908 0.0022710887 0.0046900612 
  123300 0.0047635479 0.0024611919 0.0045452441 
  123400  0.010433145 0.0018996808 0.0064641817 
  123500 0.0075293659 0.0025059502 0.0058000477 
  123600 0.0076381158 0.0024486853  0.005790361 
  123700 0.0088239546 0.0022333954 0.0060938755 
  123800  0.007748797 0.0027091625 0.0060992612 
  123900 0.0095848735 0.0025050829 0.0066984651 
  124000 0.0047792888 0.0034509466 0.0055418855 
  124100  0.004746446 0.0026714393 0.0047480094 
  124200 0.0042166174 0.0044176369  0.006262407 
  124300 0.0049844189 0.0033153029 0.0054959862 
  124400 0.0060484502 0.0028893572 0.0055355541 
  124500 0.0031131146 0.0033491936 0.0047111812 
  124600 0.0048960656 0.0030443393  0.005186368 
  124700 0.0059557586 0.0039313895 0.0065370339 
  124800 0.0043145032 0.0045975375 0.0064851326 
  124900 0.0068899316 0.0040042099 0.0070185549 
  125000 0.0059071642 0.0028964762 0.0054808605 
  125100 0.0040932152 0.0031899132 0.0049806949 
  125200 0.0025078601 0.0029366204 0.0040338092 
  125300 0.0089251416 0.0024281814 0.0063329308 
  125400 0.0085587475 0.0021471509  0.005891603 
  125500 0.0035415348 0.0024731382 0.0040225597 
  125600 0.0047628065 0.0028457378 0.0049294657 
  125700 0.0072202282 0.0028925884 0.0060514382 
  125800 0.0047829907 0.0028923397 0.0049848981 
  125900 0.0031828239 0.0031566396  0.004549125 
  126000  0.005145452 0.0035595117  0.005810647 
  126100 0.0055922548 0.0031719979 0.0056186093 
  126200 0.0054684478 0.0033543944 0.0057468403 
  126300 0.0080320662  0.004559693 0.0080737219 
  126400 0.0075391687 0.0042391464 0.0075375327 
  126500 0.0068389876 0.0038220478 0.0068141048 
  126600 0.0053817431 0.0038091933 0.0061637059 
  126700 0.0034495769 0.0044602761  0.005969466 
  126800 0.0034200373 0.0044559638 0.0059522301 
  126900  0.005798703 0.0046098402 0.0071467728 
  127000 0.0043156997 0.0050992337 0.0069873524 
  127100 0.0066735456 0.0043272947  0.007246971 
  127200  0.008850857 0.0034585499 0.0073307999 
  127300 0.0077009923 0.0040253581 0.0073945422 
  127400 0.0051871067 0.0032471317 0.0055164909 
  127500 0.0068085032 0.0023779237 0.0053566438 
  127600 0.0052935106 0.0015753167 0.0038912276 
  127700 0.0060285422 0.0016962464 0.0043337337 
  127800 0.0031660928 0.0026098707 0.0039950363 
  127900 0.0043354902 0.0026921956 0.0045889726 
  128000 0.0083843012 0.0023276175 0.0059957493 
  128100  0.007283592 0.0027663159 0.0059528874 
  128200 0.0049932892 0.0025194774 0.0047040415 
  128300 0.0057992525 0.0023253336 0.0048625065 
  128400 0.0058511507 0.0025676859 0.0051275643 
  128500 0.0070742521  0.002928316 0.0060233013 
  128600 0.0033234598 0.0031244579 0.0045784715 
  128700 0.0086278317 0.0033859545 0.0071606309 
  128800 0.0078740171 0.0022055973 0.0056504798 
  128900 0.0085363466 0.0013069661 0.0050416178 
  129000 0.0033351534  0.001577581 0.0030367106 
  129100 0.0055893108 0.0022664037 0.0047117272 
  129200 0.0048701235  0.002153315 0.0042839941 
  129300 0.0062252285 0.0013080618 0.0040315993 
  129400 0.0016379327 0.00077095168 0.0014875472 
  129500 0.0038260883 0.0016327846 0.0033066982 
  129600 0.0049471763 0.0022066363  0.004371026 
  129700 0.0040558495 0.0022224003 0.0039968344 
  129800 0.0053865375 0.0021694531 0.0045260632 
  129900 0.0053461772 0.0012735985 0.0036125511 
  130000 0.0057719457 0.0010066082 0.0035318344 
  130100 0.0041484701 0.00085811871 0.0026730744 
  130200 0.0055045996 0.0011438257  0.003552088 
  130300 0.0038217021 0.0015094047 0.0031813994 
  130400  0.013033366 0.0021761939 0.0078782915 
  130500 0.0059824605 0.0032542528 0.0058715793 
  130600  0.010398438 0.0025973659 0.0071466826 
  130700 0.0073021944 0.0044564284 0.0076511385 
  130800 0.0019518429 0.0052485537 0.0061024849 
  130900 0.0035284616 0.0043347806 0.0058784825 
  131000 0.0057900174 0.0033005381 0.0058336707 
  131100 0.0081141252 0.0042310645 0.0077809943 
  131200 0.0026362962 0.0039898397 0.0051432193 
  131300 0.0030785442 0.0021788666 0.0035257297 
  131400 0.0061814222 0.0019327246 0.0046370968 
  131500  0.006686877 0.0027621367 0.0056876454 
  131600 0.0063144792  0.003217536 0.0059801206 
  131700 0.0063600277 0.0039602562 0.0067427684 
  131800 0.0049763769 0.0038174145 0.0059945794 
  131900 0.0074519914 0.0024274924 0.0056877386 
  132000 0.0061008013 0.0028343482 0.0055034488 
  132100  0.006691043 0.0033134805 0.0062408118 
  132200 0.0077921084 0.0028722562 0.0062813036 
  132300 0.0041362649 0.0028560438 0.0046656597 
  132400 0.0078689108 0.0033320582 0.0067747066 
  132500 0.0067222127 0.0047592426 0.0077002107 
  132600  0.004110087 0.0042724477 0.0060706108 
  132700 0.0068606186 0.0027906714  0.005792192 
  132800 0.0080093791  0.002500648 0.0060047513 
  132900 0.0080309878 0.0023444083 0.0058579655 
  133000 0.0060061314 0.0021353154 0.0047629979 
  133100 0.0063861966 0.0023210652 0.0051150262 
  133200 0.0041661053 0.0030920316 0.0049147026 
  133300 0.0049862009 0.0031442472 0.0053257101 
  133400 0.0064326942 0.0031855778 0.0059998815 
  133500 0.0035008753 0.0028061847 0.0043378177 
  133600 0.0050774215 0.0021970757 0.0044184476 
  133700 0.0052479219 0.0031058936 0.0054018594 
  133800 0.0081641232 0.0030846514 0.0066564553 
  133900  0.008652221 0.0030039738 0.0067893205 
  134000  0.003865867 0.0022453663 0.0039366832 
  134100 0.0082130391 0.0013040859 0.0048972905 
  134200 0.0030733179 0.0020856443 0.0034302208 
  134300 0.0031357697 0.0024987839 0.0038706831 
  134400 0.0055771508 0.0023139564 0.0047539599 
  134500 0.0068046108 0.0033096278  0.006286645 
  134600 0.0056833479 0.0040858973  0.006572362 
  134700 0.0047222083 0.0030651131 0.0051310792 
  134800 0.0073578026 0.0017302626 0.0049493013 
  134900 0.0033602383 0.0015143086 0.0029844128 
  135000 0.0040692423 0.0020487051 0.0038289987 
  135100 0.0056784816 0.0032673134 0.0057516491 
  135200 0.0079698692   0.00270851 0.0061953278 
  135300 0.0075741569 0.0032990472 0.0066127408 
  135400  0.007410046 0.0036586424 0.0069005376 
  135500 0.0072525547 0.0031013398 0.0062743325 
  135600 0.0067069076 0.0026483163 0.0055825884 
  135700 0.0043922321 0.0025393088 0.0044609103 
  135800 0.0053925115 0.0019164827 0.0042757065 
  135900 0.0055224205 0.0019955572 0.0044116162 
  136000 0.0042585913 0.0026652519 0.0045283856 
  136100 0.0043619318 0.0022879135 0.0041962586 
  136200 0.0065897352  0.001808421 0.0046914302 
  136300 0.0065960614 0.0014293779 0.0043151548 
  136400 0.0046629266 0.0016761582 0.0037161886 
  136500 0.0031635145 0.0030401249 0.0044241626 
  136600 0.0061967415  0.003572346 0.0062834204 
  136700 0.0029449339 0.0032512618 0.0045396703 
  136800 0.0042835678 0.0028455286 0.0047195895 
  136900 0.0048080363 0.0022825347 0.0043860505 
  137000 0.0028644113 0.0022156643 0.0034688442 
  137100  0.002639855 0.0018930168 0.0030479533 
  137200 0.0042518212 0.0018245099 0.0036846817 
  137300 0.0093493812 0.0020750528 0.0061654071 
  137400 0.0058204505 0.0034611469  0.006007594 
  137500 0.0040639473 0.0036611112 0.0054390881 
  137600 0.0058111609 0.0035459827 0.0060883656 
  137700 0.0064539868 0.0025607283 0.0053843475 
  137800 0.0048421894 0.0024393365 0.0045577944 
  137900 0.0048175311  0.002206047 0.0043137169 
  138000 0.0099072723 0.0022200339 0.0065544655 
  138100 0.0086164078 0.0028744885 0.0066441669 
  138200 0.0051612139 0.0027985715 0.0050566026 
  138300 0.0054040344 0.0017910465 0.0041553116 
  138400 0.0073359217 0.0023030981 0.0055125639 
  138500 0.0047972626 0.0034217852 0.0055205876 
  138600 0.0048743311 0.0032435416 0.0053760615 
  138700 0.0049928606 0.0027638296 0.0049482062 
  138800 0.0064302638 0.0027240121 0.0055372525 
  138900  0.011187984 0.0026176048 0.0075123476 
  139000  0.010730184 0.0017820957 0.0064765511 
  139100 0.0043795924 0.0016808033  0.003596875 
  139200 0.0050159817 0.0021049346 0.0042994265 
  139300 0.0078614729 0.0029741397 0.0064135341 
  139400 0.0066558755 0.0021987983 0.0051107438 
  139500 0.0055678245 0.0015142891 0.0039502123 
  139600 0.0053098719 0.00097649265 0.0032995616 
  139700 0.0060276531 0.0010944319 0.0037315301 
  139800 0.0044452954 0.0019767142  0.003921531 
  139900 0.0042403641 0.0022231402 0.0040782995 
  140000 0.0056203557 0.0023770544   0.00483596 
  140100 0.0072858491 0.0026124898 0.0058000488 
  140200 0.0078439999 0.0022881133 0.0057198632 
  140300 0.0081695314 0.0010803073 0.0046544773 
  140400   0.00480678 0.0013819114 0.0034848777 
  140500 0.0073402327  0.002047107 0.0052584588 
  140600  0.005788854 0.0022086114  0.004741235 
  140700  0.006245765 0.0021969745 0.0049294967 
  140800 0.0079131654 0.0027379539 0.0061999638 
  140900  0.004349932 0.0033264857 0.0052295809 
  141000  0.010797633 0.0019269068 0.0066508712 
  141100 0.0065523025 0.0020600552 0.0049266876 
  141200  0.008284322 0.0021529843 0.0057773752 
  141300 0.0036833185 0.0019772894 0.0035887412 
  141400 0.0042898483 0.0015865653 0.0034633739 
  141500 0.0069240994 0.0015192548 0.0045485483 
  141600 0.0044806359 0.0030434132 0.0050036914 
  141700 0.0057042506 0.0026943032 0.0051899128 
  141800 0.0084359101 0.0026372445 0.0063279552 
  141900  0.006378037  0.001721491 0.0045118822 
  142000 0.0069072667 0.0011210944 0.0041430235 
  142100 0.0089388937  0.001020574   0.00493134 
  142200 0.0043968777 0.0024547179 0.0043783519 
  142300 0.0048157935 0.0028924283  0.004999338 
  142400 0.0058554879 0.0027032887 0.0052650647 
  142500 0.0037846347 0.0029904561 0.0046462338 
  142600 0.0048181308 0.0026430244 0.0047509567 
  142700 0.0012059927  0.002599559 0.0031271808 
  142800 0.0043964894 0.0026154672 0.0045389313 
  142900 0.0049991547 0.0024018013 0.0045889315 
  143000 0.0041513396 0.0019009804 0.0037171915 
  143100 0.0066717717 0.0019977405 0.0049166406 
  143200 0.0043966092 0.0018130716 0.0037365882 
  143300 0.0056179507 0.0013793207 0.0038371742 
  143400 0.0048568785 0.0017689235 0.0038938078 
  143500 0.0047697954 0.0021864774 0.0042732629 
  143600 0.0046435704 0.0018406701 0.0038722322 
  143700 0.0062768953 0.0016794733  0.004425615 
  143800 0.0074785964 0.0010468979 0.0043187838 
  143900  0.005278768 0.00072659687 0.0030360579 
  144000 0.0050589169 0.0013913493 0.0036046254 
  144100 0.0069695631 0.00091966959 0.0039688535 
  144200 0.0064401102  0.001635714 0.0044532622 
  144300 0.0044109244  0.003564078 0.0054938574 
  144400 0.0025287236 0.0040816738 0.0051879904 
  144500 0.0082076203 0.0030412956 0.0066321294 
  144600 0.0074845957 0.0013111973 0.0045857079 
  144700 0.0032095793  0.001104565 0.0025087559 
  144800 0.0041290582 0.00095690584 0.0027633688 
  144900 0.0048083948 0.0017383997 0.0038420725 
  145000 0.0038056652 0.0014973965  0.003162375 
  145100  0.008882397 0.0015145577 0.0054006064 
  145200 0.0045763905 0.0028506696 0.0048528404 
  145300  0.004960601 0.0031184569 0.0052887199 
  145400 0.0057344221 0.0024418039 0.0049506136 
  145500 0.0081472788 0.0025400318 0.0061044663 
  145600 0.0092021908 0.0020785606  0.006104519 
  145700 0.0051929483  0.002952465 0.0052243799 
  145800 0.0080895505 0.0030748488 0.0066140271 
  145900 0.0068748581 0.0028219476  0.005829698 
  146000 0.0066611931 0.0023571735 0.0052714455 
  146100 0.0051766488 0.0020189668 0.0042837507 
  146200 0.0050951709  0.001738462 0.0039675993 
  146300 0.0060850625 0.0020413205 0.0047035354 
  146400 0.0071364098 0.0020482208 0.0051704001 
  146500 0.0035139904 0.0030423346 0.0045797054 
  146600 0.0039176169 0.0028536791 0.0045676365 
  146700 0.0032515115  0.002259137 0.0036816732 
  146800   0.00736089 0.0019782251 0.0051986145 
  146900 0.0041703302 0.0017873547 0.0036118742 
  147000 0.0081189207 0.0018560227 0.0054080505 
  147100 0.0028484356 0.0017391531 0.0029853437 
  147200 0.0064455258 0.0018104165 0.0046303341 
  147300 0.0091776561 0.0032040321 0.0072192567 
  147400 0.0086040205 0.0031318504 0.0068961094 
  147500 0.0051399938 0.0023657281 0.0046144754 
  147600 0.0047712125 0.0021424358 0.0042298412 
  147700 0.0045804926 0.0033505307 0.0053544962 
  147800 0.0090747303 0.0038738212 0.0078440157 
  147900 0.0074087975 0.0033373904 0.0065787393 
  148000 0.0043326903 0.0028324187 0.0047279707 
  148100  0.007642371 0.0026019844 0.0059455217 
  148200 0.0055493452 0.0018731766 0.0043010151 
  148300 0.0015232259 0.0018813215 0.0025477328 
  148400 0.0039357546  0.001875273 0.0035971656 
  148500  0.002882944 0.0021024023 0.0033636903 
  148600 0.0069504574 0.0020559337 0.0050967588 
  148700 0.0050469972 0.0020614128  0.004269474 
  148800 0.0040693064  0.002742592 0.0045229135 
  148900 0.0042463329 0.0035253241 0.0053830948 
  149000 0.0077978317  0.002449216 0.0058607674 
  149100  0.010476743  0.002574393 0.0071579682 
  149200 0.0065272078 0.0036702075 0.0065258609 
  149300 0.0043711536 0.0028778088 0.0047901885 
  149400 0.0045718357 0.0026565903 0.0046567684 
  149500 0.0089675025 0.0029690836  0.006892366 
  149600 0.0064001802 0.0033975158 0.0061975946 
  149700 0.0030280783 0.0048380156 0.0061627999 
  149800 0.0057334534  0.003839629 0.0063480149 
  149900  0.005186291 0.0026925139 0.0049615163 
  150000 0.0039897875 0.0024435216 0.0041890536 
  150100 0.0049972045 0.0028729532 0.0050592302 
  150200 0.0060807118 0.0023032701 0.0049635815 
  150300 0.0058016169 0.0033487356  0.005886943 
  150400 0.0055982712 0.0024941751 0.0049434187 
  150500 0.0053731873 0.0025577566  0.004908526 
  150600 0.0047276263 0.0031410609 0.0052093974 
  150700 0.0068848734  0.001676635 0.0046887671 
  150800 0.0048029063  0.001963008 0.0040642795 
  150900 0.0064983492 0.0029709844 0.0058140122 
  151000 0.0039196168 0.0028516799 0.0045665123 
  151100 0.0077420061 0.0022609908 0.0056481185 
  151200 0.0040646544 0.0020478454 0.0038261318 
  151300 0.0053573489 0.0023267972 0.0046706373 
  151400  0.006886137 0.0013981473 0.0044108322 
  151500 0.0059854709 0.0029836498 0.0056022933 
  151600 0.0027609839  0.003355974 0.0045639044 
  151700 0.0041155552 0.0037470483 0.0055476037 
  151800  0.002918052 0.0032260462 0.0045026939 
  151900 0.0037328277 0.0034911729 0.0051242851 
  152000 0.0051493978 0.0027469126 0.0049997741 
  152100 0.0049993918 0.0026718618 0.0048590957 
  152200 0.0073406075 0.0017942326 0.0050057484 
  152300 0.0073687474 0.0016114936 0.0048353206 
  152400  0.004752908 0.0015517564 0.0036311536 
  152500 0.0067870539 0.0017098486 0.0046791847 
  152600 0.0067634581 0.0019589709 0.0049179838 
  152700 0.0056528571  0.002838552  0.005311677 
  152800 0.0041035918 0.0039355606  0.005730882 
  152900 0.0037068047 0.0040428469 0.0056645739 
  153000 0.0073418439  0.002082914 0.0052949707 
  153100 0.0019695661 0.0022601976 0.0031218827 
  153200 0.0035662468  0.001705744  0.003265977 
  153300 0.0049804983  0.002341514  0.004520482 
  153400 0.0040116757 0.0037926465 0.0055477546 
  153500 0.0043451089 0.0042908855 0.0061918707 
  153600  0.005199142 0.0036467187 0.0059213433 
  153700 0.0054486136 0.0023106931 0.0046944615 
  153800   0.00760384 0.0019546383 0.0052813183 
  153900 0.0049753706  0.003468047 0.0056447716 
  154000 0.0069355806 0.0039918445  0.007026161 
  154100 0.0033585478 0.0037180727 0.0051874374 
  154200 0.0046309834 0.0031887097 0.0052147649 
  154300 0.0029455778 0.0034505431 0.0047392334 
  154400 0.0076840954 0.0033555917 0.0067173834 
  154500 0.0044760248 0.0038556761  0.005813937 
  154600 0.0081912082 0.0037223931 0.0073060466 
  154700 0.0082680184 0.0028951761 0.0065124341 
  154800  0.003281717  0.004042332 0.0054780832 
  154900 0.0070431753 0.0031233969 0.0062047861 
  155000 0.0093036293  0.002151898 0.0062222358 
  155100 0.0056464546 0.0024070642 0.0048773881 
  155200 0.0038595447 0.0022194409 0.0039079917 
  155300 0.0033923693 0.0018267688 0.0033109304 
  155400 0.0057627866 0.0023014028 0.0048226219 
  155500 0.0060441856 0.0032145101 0.0058588413 
  155600  0.006166313 0.0034095543 0.0061073163 
  155700 0.0044159237  0.002860837 0.0047928036 
  155800  0.005540699 0.0027291812  0.005153237 
  155900 0.0056156272 0.0030189153 0.0054757522 
  156000 0.0048286456 0.0036378754 0.0057504078 
  156100 0.0039869941 0.0032963786 0.0050406885 
  156200 0.0055635456 0.0022978912 0.0047319425 
  156300 0.0048515825 0.0022119525 0.0043345199 
  156400 0.0081761301 0.0027341281 0.0063111851 
  156500 0.0058374895 0.0045389007 0.0070928023 
  156600 0.0028650504 0.0051247719 0.0063782315 
  156700 0.0082745184  0.003118616 0.0067387178 
  156800  0.014852796 0.0016358835 0.0081339818 
  156900 0.0075851298 0.0024953446 0.0058138389 
  157000 0.0044212014 0.0036515197 0.0055857953 
  157100 0.0035887326 0.0042081592 0.0057782297 
  157200 0.0052153677 0.0033216444 0.0056033678 
  157300 0.0041499683  0.002564693 0.0043803041 
  157400 0.0048205978 0.0021864004  0.004295412 
  157500 0.0061076898 0.0031766696 0.0058487838 
  157600 0.0059486569 0.0034031094 0.0060056468 
  157700 0.0045416704 0.0031226682  0.005109649 
  157800 0.0045295413  0.003144865 0.0051265393 
  157900 0.0067249917 0.0030244295 0.0059666134 
  158000 0.0066647226 0.0028269559  0.005742772 
  158100 0.0078478393 0.0031784582 0.0066118879 
  158200 0.0025073069 0.0034477321 0.0045446789 
  158300  0.005932928 0.0024503132 0.0050459692 
  158400 0.0073397183 0.0024115422  0.005622669 
  158500   0.00380987 0.0033077797 0.0049745979 
  158600  0.010289427 0.0021190557 0.0066206801 
  158700 0.0073806872 0.0027539362 0.0059829868 
  158800 0.0046087068 0.0043329747 0.0063492839 
  158900 0.0052768154 0.0034423146 0.0057509213 
  159000 0.0037986889 0.0039920078 0.0056539342 
  159100 0.0062399247 0.0030087087 0.0057386758 
  159200 0.0073935296 0.0025429081 0.0057775773 
  159300 0.0054081136 0.0018199387 0.0041859884 
  159400 0.0048846794 0.0016340977  0.003771145 
  159500 0.0027377811 0.0022812064 0.0034789857 
  159600 0.0055912695 0.0029538449 0.0054000254 
  159700  0.003292987  0.003572124 0.0050128059 
[...]
 1960500 0.0069945725 0.0037783309 0.0068384563 
 1960600 0.0098748901 0.0024838776  0.006804142 
 1960700 0.0096262778 0.0019108159 0.0061223125 
 1960800 0.0056757442 0.0024055322 0.0048886703 
 1960900 0.0055352698 0.0022641062 0.0046857867 
 1961000 0.0051838208 0.0022063105 0.0044742321 
 1961100 0.0062372965 0.0024924976 0.0052213148 
 1961200 0.0025502957 0.0027325048 0.0038482591 
 1961300  0.002731278 0.0030192974 0.0042142315 
 1961400 0.0045566526 0.0040876228 0.0060811583 
 1961500  0.006062079 0.0042061939 0.0068583535 
 1961600 0.0047766782 0.0043341792 0.0064239759 
 1961700 0.0041486337 0.0038630087  0.005678036 
 1961800 0.0046378938  0.003066307 0.0050953855 
 1961900 0.0045773754    0.0029914 0.0049940018 
 1962000 0.0038926742 0.0031840189 0.0048870638 
 1962100 0.0063644303 0.0030522572 0.0058366954 
 1962200 0.0079028953 0.0028810671 0.0063385838 
 1962300 0.0027924619 0.0039649281 0.0051866301 
 1962400 0.0066070146 0.0040026948 0.0068932637 
 1962500 0.0054961779 0.0032209656 0.0056255434 
 1962600 0.0084682963 0.0030014056 0.0067062853 
 1962700 0.0091703234 0.0028396087 0.0068516252 
 1962800 0.0067920859 0.0037469628 0.0067185004 
 1962900 0.0047178729 0.0032216173 0.0052856867 
 1963000 0.0057015768 0.0033797163 0.0058741562 
 1963100 0.0066251544 0.0037035093 0.0066020144 
 1963200  0.006566084 0.0032647346 0.0061373964 
 1963300 0.0054768241 0.0015266723 0.0039227829 
 1963400 0.0053310578 0.0012184476 0.0035507854 
 1963500 0.0037944015 0.0015190807 0.0031791313 
 1963600 0.0034437629  0.001715983 0.0032226292 
 1963700 0.0046686092  0.002219933 0.0042624495 
 1963800 0.0054567371 0.0017851991 0.0041725216 
 1963900 0.0092620905 0.0020913425 0.0061435071 
 1964000 0.0062639102  0.003253103 0.0059935638 
 1964100 0.0024949605 0.0027703505 0.0038618957 
 1964200 0.0040824406  0.002548893 0.0043349607 
 1964300 0.0044200597 0.0021857654 0.0041195415 
 1964400 0.0038121672 0.0023304172 0.0039982403 
 1964500 0.0064642646 0.0018514469 0.0046795627 
 1964600 0.0017524609 0.0021002648 0.0028669664 
 1964700 0.0047324165 0.0020582653 0.0041286975 
 1964800  0.010449374 0.0013620185 0.0059336198 
 1964900 0.0038444661 0.0028134708 0.0044954247 
 1965000 0.0056498102 0.0022182726 0.0046900646 
 1965100 0.0053066032 0.0022586217 0.0045802606 
 1965200 0.0069214601 0.0013209909 0.0043491297 
 1965300 0.0059903754 0.0014092068  0.004029996 
 1965400 0.0048894359  0.002921797 0.0050609252 
 1965500 0.0065285302 0.0037705956 0.0066268276 
 1965600 0.0055699201 0.0038049615 0.0062418016 
 1965700 0.0057761742 0.0028027958  0.005329872 
 1965800 0.0080609484 0.0026045092 0.0061311741 
 1965900 0.0033204124 0.0020203619 0.0034730423 
 1966000  0.003824832 0.0031948671 0.0048682311 
 1966100 0.0071110687 0.0026172021 0.0057282947 
 1966200 0.0035963732 0.0026525603 0.0042259736 
 1966300 0.0094141392 0.0020343143 0.0061530002 
 1966400 0.0079026895 0.0019192529 0.0053766795 
 1966500  0.003951066 0.0026627325 0.0043913238 
 1966600  0.005533159 0.0027945203 0.0052152774 
 1966700 0.0066382505 0.0024761183 0.0053803529 
 1966800 0.0039264202   0.00215241 0.0038702188 
 1966900 0.0053954042 0.0020615923 0.0044220817 
 1967000 0.0066731919 0.0016785728 0.0045980942 
 1967100 0.0042533831 0.0014679359  0.003328791 
 1967200 0.0051051855 0.0021087682 0.0043422868 
 1967300 0.0044130338  0.002315745 0.0042464473 
 1967400 0.0044167531 0.0021929854 0.0041253149 
 1967500 0.0039294895 0.0030455094 0.0047646611 
 1967600 0.0063856695 0.0028973068 0.0056910372 
 1967700 0.0086983553 0.0010984073 0.0049039378 
 1967800 0.0035855312 0.0013531409 0.0029218108 
 1967900 0.0032533916 0.00085470184 0.0022780607 
 1968000 0.0055666862 0.0005069731 0.0029423983 
 1968100 0.0040647573 0.00072221685 0.0025005481 
 1968200 0.0074997108 0.00080588852  0.004087012 
 1968300 0.0057527953 0.0016615481 0.0041783961 
 1968400 0.0051580402 0.0015228734  0.003779516 
 1968500 0.0066735538 0.0012665609 0.0041862407 
 1968600 0.0047698073 0.0018199955 0.0039067862 
 1968700 0.0053072273 0.0022727838 0.0045946957 
 1968800 0.0065692649 0.0018155436  0.004689597 
 1968900 0.0040686061 0.0025975067 0.0043775218 
 1969000 0.0064585448 0.0025703599 0.0053959733 
 1969100  0.004939434 0.0017686902 0.0039296925 
 1969200 0.0060776939 0.0018956355 0.0045546265 
 1969300 0.0081579327 0.0023287143 0.0058978099 
 1969400 0.0062630103 0.0033829281 0.0061229951 
 1969500 0.0068356813 0.0039861439 0.0069767545 
 1969600 0.0089526563 0.0034184467 0.0073352338 
 1969700 0.0052003915 0.0025627091 0.0048378803 
 1969800 0.0059418323  0.002155389 0.0047549406 
 1969900 0.0030158988 0.0014677235 0.0027871792 
 1970000 0.0060397702 0.0016903241 0.0043327236 
 1970100 0.0036332505 0.0020039912 0.0035935383 
 1970200  0.008801696 0.0020879835 0.0059387255 
 1970300 0.0082697683 0.0030512016 0.0066692252 
 1970400 0.0075565523  0.003319962 0.0066259537 
 1970500 0.0055195191 0.0031565735 0.0055713631 
 1970600 0.0040318643 0.0026254408 0.0043893815 
 1970700 0.0051076843 0.0025782369 0.0048128488 
 1970800 0.0065699255 0.0032461751 0.0061205175 
 1970900 0.0044571597 0.0035175583 0.0054675657 
 1971000 0.0031305238  0.001905822 0.0032754262 
 1971100 0.0023515071 0.0019947722 0.0030235565 
 1971200 0.0054280481 0.0020545753 0.0044293463 
 1971300 0.0045673028 0.0030335501 0.0050317451 
 1971400 0.0041543501 0.0033047556 0.0051222838 
 1971500 0.0087947749 0.0039635995 0.0078113135 
 1971600 0.0051897883 0.0057236915 0.0079942239 
 1971700 0.0030472456  0.005629495 0.0069626649 
 1971800 0.0031707464 0.0046136416 0.0060008431 
 1971900 0.0078800697 0.0037920263 0.0072395568 
 1972000 0.0037043787 0.0024608643   0.00408153 
 1972100 0.0070915644 0.0025128532 0.0056154126 
 1972200 0.0068422244 0.0026524197 0.0056458929 
 1972300 0.0078268912 0.0025939729 0.0060182378 
 1972400 0.0072005595  0.002088571 0.0052388157 
 1972500 0.0036550803 0.0026157743  0.004214872 
 1972600 0.0084102242 0.0029286177 0.0066080908 
 1972700 0.0041310896 0.0033978373  0.005205189 
 1972800 0.0052119826 0.0030357385 0.0053159809 
 1972900 0.0079881594 0.0031010548 0.0065958746 
 1973000 0.0057292685  0.003195532 0.0057020869 
 1973100 0.0048623789 0.0031669512  0.005294242 
 1973200 0.0093569052 0.0039018006 0.0079954467 
 1973300  0.005935208 0.0034592509 0.0060559044 
 1973400 0.0056853812 0.0031981722 0.0056855265 
 1973500 0.0065467023 0.0025377593 0.0054019416 
 1973600 0.0044590312 0.0027902731 0.0047410993 
 1973700 0.0039204749 0.0033797046 0.0050949124 
 1973800 0.0056987098 0.0026236311 0.0051168166 
 1973900 0.0056478999 0.0029411218  0.005412078 
 1974000 0.0039912725 0.0039026632 0.0056488449 
 1974100 0.0033679363 0.0031436284 0.0046171006 
 1974200 0.0046403003 0.0030770618 0.0051071932 
 1974300 0.0051305372 0.0037322501 0.0059768601 
 1974400 0.0063395466 0.0034493472 0.0062228989 
 1974500 0.0049001281    0.0032294  0.005373206 
 1974600 0.0083939005 0.0042075051 0.0078798366 
 1974700 0.0046519345 0.0045731014 0.0066083227 
 1974800 0.0064209519 0.0043502488 0.0071594152 
 1974900  0.005644526 0.0034069812 0.0058764614 
 1975000 0.0025629777 0.0027949519 0.0039162546 
 1975100 0.0058902883 0.0026903834 0.0052673846 
 1975200 0.0063959772 0.0025424674 0.0053407074 
 1975300  0.011027124 0.0015790402  0.006403407 
 1975400 0.0031725278 0.0030043329 0.0043923139 
 1975500 0.0053141037 0.0030321671 0.0053570875 
 1975600 0.0058112633 0.0027034434 0.0052458711 
 1975700 0.0060100248 0.0039757106 0.0066050965 
 1975800 0.0065944826 0.0054218301 0.0083069162 
 1975900  0.010339243 0.0043305901 0.0088540091 
 1976000  0.011451195 0.0029936752 0.0080035729 
 1976100 0.0090400446 0.0030227558 0.0069777753 
 1976200 0.0060210973  0.002834389  0.005468619 
 1976300 0.0067561526 0.0022454653 0.0052012821 
 1976400  0.004368839 0.0024705159 0.0043818829 
 1976500 0.0055902776 0.0024645037 0.0049102501 
 1976600 0.0054919563 0.0018905402 0.0042932711 
 1976700 0.0064510786  0.002308392 0.0051307389 
 1976800 0.0054489893 0.0023442483 0.0047281811 
 1976900 0.0099164307 0.0016253191 0.0059637575 
 1977000 0.0050432264 0.0011629064 0.0033693179 
 1977100  0.011131823 0.0024228603 0.0072930328 
 1977200 0.0056187323 0.0051082653 0.0075664607 
 1977300  0.006862362 0.0050380355 0.0080403189 
 1977400 0.0063131783 0.0031770644 0.0059390798 
 1977500 0.0047487505 0.0023006061 0.0043781844 
 1977600  0.006201201  0.001780599 0.0044936244 
 1977700 0.0061133931 0.0021250063 0.0047996157 
 1977800 0.0039460837  0.002780264 0.0045066756 
 1977900 0.0063846087 0.0017969803 0.0045902466 
 1978000 0.0040908015 0.0023561862 0.0041459119 
 1978100 0.0048825405 0.0021234722 0.0042595837 
 1978200 0.0088335719 0.0020017732 0.0058664609 
 1978300 0.0077171256 0.0028094353 0.0061856778 
 1978400 0.0018987691 0.0037584588 0.0045891703 
 1978500 0.0023500411 0.0022272009 0.0032553439 
 1978600 0.0051773482 0.00096218569 0.0032272755 
 1978700 0.0061827199 0.0011162272 0.0038211671 
 1978800  0.009111293 0.0010108614 0.0049970521 
 1978900 0.0061476486  0.001323389 0.0040129853 
 1979000 0.0056127461 0.00097797006 0.0034335465 
 1979100 0.0066070368 0.0015313987 0.0044219773 
 1979200 0.0046173865 0.0016422133 0.0036623199 
 1979300 0.0061161368 0.0011727091 0.0038485189 
 1979400 0.0075472949 0.00076681085 0.0040687524 
 1979500 0.0049792979 0.0015577259 0.0037361687 
 1979600 0.0014429351 0.0025850904 0.0032163745 
 1979700 0.0064219709 0.0011707712 0.0039803835 
 1979800 0.0049532497 0.0017377143  0.003904761 
 1979900  0.002481649 0.0023184209 0.0034041424 
 1980000 0.0075336329 0.0016093302 0.0049052946 
 1980100 0.0059967998 0.0016592704 0.0042828703 
 1980200 0.0065408715 0.0017920375 0.0046536687 
 1980300 0.0032661512 0.0023029827 0.0037319239 
 1980400 0.0072959864 0.0017896481 0.0049816422 
 1980500 0.0055284893 0.0015456897 0.0039644038 
 1980600 0.0047572056 0.0019724932 0.0040537707 
 1980700 0.0061647092 0.0021057873 0.0048028475 
 1980800 0.0075310851 0.0020954209 0.0053902706 
 1980900 0.0046053897 0.0025667853 0.0045816433 
 1981000 0.0079048481 0.0020409244 0.0054992954 
 1981100 0.0069550352 0.0019397248 0.0049825527 
 1981200 0.0056447157 0.0018614074 0.0043309705 
 1981300 0.0042692741 0.0015036061 0.0033714135 
 1981400 0.0067776174 0.0016822792 0.0046474868 
 1981500 0.0056995348 0.0025096397 0.0050031862 
 1981600 0.0073881165 0.0030486137 0.0062809147 
 1981700 0.0070202977 0.0034162989 0.0064876792 
 1981800 0.0073935276 0.0026813314 0.0059159997 
 1981900 0.0054577041 0.0028244713 0.0052122168 
 1982000 0.0059788537 0.0021379905  0.004753739 
 1982100 0.0070328323 0.0011754167 0.0042522808 
 1982200 0.0065697368 0.0019948741 0.0048691339 
 1982300 0.0040695658 0.0023955351 0.0041759702 
 1982400 0.0038101487 0.0025801419  0.004247082 
 1982500 0.0079464846 0.0028070914 0.0062836784 
 1982600 0.0024192208 0.0038446404 0.0049030495 
 1982700 0.0035682915  0.004096689 0.0056578165 
 1982800 0.0078632963  0.002088143 0.0055283351 
 1982900 0.0060362346 0.0012085046 0.0038493572 
 1983000 0.0066286526  0.001304644 0.0042046795 
 1983100 0.0054900367 0.0012613752 0.0036632663 
 1983200 0.0045275053 0.0010815046 0.0030622882 
 1983300 0.0048132004 0.0014660019 0.0035717771 
 1983400 0.0032467201 0.0015013961 0.0029218361 
 1983500 0.0060543353 0.0019559081 0.0046046798 
 1983600 0.0035424966 0.0018174683 0.0033673105 
 1983700 0.0063286339 0.0019285797  0.004697357 
 1983800 0.0067768696 0.0015398992 0.0045047797 
 1983900 0.0077010943 0.0015892189 0.0049584476 
 1984000 0.0051937634 0.0014805675 0.0037528389 
 1984100 0.0048113251 0.0018312126 0.0039361673 
 1984200 0.0042279273  0.002233986 0.0040837042 
 1984300 0.0068351334 0.0018321944 0.0048225653 
 1984400 0.0074083615 0.0018231602 0.0050643183 
 1984500 0.0067938266 0.0013584173 0.0043307164 
 1984600 0.0050777335 0.0019262125 0.0041477209 
 1984700 0.0092455758 0.0025815325 0.0066264719 
 1984800 0.0096689704  0.002020039 0.0062502136 
 1984900 0.0058529616 0.0012141981 0.0037748688 
 1985000 0.0036133772 0.0012006366 0.0027814891 
 1985100 0.0051871066 0.0013162983 0.0035856574 
 1985200 0.0023855972 0.0021800686 0.0032237674 
 1985300 0.0056467973 0.0018242818 0.0042947556 
 1985400 0.0039605835 0.0020756365 0.0038083918 
 1985500 0.0044773863 0.0025513022 0.0045101587 
 1985600 0.0026361051 0.0030883769 0.0042416728 
 1985700 0.0045407546 0.0022803429 0.0042669231 
 1985800 0.0053306661 0.0026113122 0.0049434786 
 1985900 0.0071588074 0.0022417548  0.005373733 
 1986000 0.0061578965 0.0031140689 0.0058081486 
 1986100 0.0047428529 0.0032308136 0.0053058118 
 1986200 0.0034212768 0.0027858419 0.0042826505 
 1986300 0.0059444531 0.0015401511 0.0041408493 
 1986400 0.0034702609 0.0019997826 0.0035180218 
 1986500 0.0060106224 0.0022561338 0.0048857811 
 1986600  0.003108006 0.0016915123 0.0030512649 
 1986700 0.0064565187 0.0010524531   0.00387718 
 1986800 0.0055395426  0.001307355 0.0037309049 
 1986900 0.0051037324 0.0015378691 0.0037707521 
 1987000 0.0056176184 0.0022998902 0.0047575983 
 1987100 0.0042768422 0.0028600068 0.0047311252 
 1987200 0.0075050486 0.0030639837 0.0063474425 
 1987300  0.006304378  0.003484878 0.0062430434 
 1987400 0.0074424243 0.0029893235 0.0062453841 
 1987500 0.0074056284 0.0024190695 0.0056590319 
 1987600 0.0057406204  0.002295578 0.0048070994 
 1987700 0.0045918433 0.0026633573 0.0046722887 
 1987800 0.0065718508 0.0015731201 0.0044483048 
 1987900 0.0058190076 0.00050092981 0.0030467456 
 1988000 0.0061244985 0.00081777499 0.0034972431 
 1988100 0.0055759576  0.001087454 0.0035269355 
 1988200 0.0076713804 0.0010228151 0.0043790441 
 1988300 0.0057238128 0.00095656105 0.0034607291 
 1988400 0.0053517389 0.0013967107 0.0037380965 
 1988500 0.0054358164  0.001188979 0.0035671487 
 1988600 0.0045795616 0.0010098764 0.0030134346 
 1988700 0.0063827345 0.0021879846 0.0049804309 
 1988800 0.0051362286 0.0041060385 0.0063531385 
 1988900 0.0040622539 0.0033989759  0.005176212 
 1989000 0.0067178245 0.0028253271 0.0057643753 
 1989100 0.0071856602 0.0032868581 0.0064305844 
 1989200 0.0061690389 0.0027004609 0.0053994154 
 1989300  0.007905816 0.0018742216 0.0053330161 
 1989400 0.0048366639 0.0021255921 0.0042416325 
 1989500 0.0048463765 0.0017863335 0.0039066232 
 1989600 0.0083618613 0.0018650386 0.0055233529 
 1989700 0.0066109985 0.0025926904 0.0054850022 
 1989800 0.0042946638 0.0019051777 0.0037840931 
 1989900 0.0054067864 0.0017829397 0.0041484087 
 1990000 0.0038111268 0.0031276263 0.0047949942 
 1990100 0.0057606096 0.0045272667 0.0070475334 
 1990200  0.007287663 0.0033574667 0.0065458193 
 1990300 0.0077286921 0.0010938157 0.0044751185 
 1990400  0.007517476 0.0016447693  0.004933665 
 1990500 0.0046021734 0.0018684616 0.0038819124 
 1990600 0.0041773161 0.0025098489 0.0043374247 
 1990700 0.0041806553 0.0023410643  0.004170101 
 1990800   0.01268377 0.0018377556  0.007386905 
 1990900 0.0099957687 0.0018543285 0.0062274773 
 1991000 0.0055080545  0.002202668 0.0046124418 
 1991100 0.0053123424 0.0026053902   0.00492954 
 1991200 0.0051611902 0.0029772906 0.0052353113 
 1991300 0.0032294914 0.0035044982 0.0049174007 
 1991400 0.0069050842 0.0026687099 0.0056896843 
 1991500 0.0046391328 0.0024293369 0.0044589575 
 1991600 0.0049194032 0.0018574421  0.004009681 
 1991700 0.0034133272 0.00095642278 0.0024497534 
 1991800 0.0066667692  0.001448764 0.0043654755 
 1991900 0.0019203281 0.0017645734 0.0026047169 
 1992000 0.0074488658 0.0016472833 0.0049061621 
 1992100   0.00222653 0.0020680186 0.0030421255 
 1992200 0.0057523888 0.0015949205 0.0041115907 
 1992300 0.0038276629 0.0012163584 0.0028909609 
 1992400 0.0045044792 0.00090658281 0.0028772925 
 1992500 0.0064279603 0.0015557002 0.0043679329 
 1992600 0.0039189748 0.0024861824 0.0042007339 
 1992700 0.0046706277 0.0027429798 0.0047863794 
 1992800 0.0080326467 0.0024456256 0.0059599086 
 1992900 0.0055484585 0.0021793597 0.0046068103 
 1993000 0.0036693777 0.0023811113  0.003986464 
 1993100 0.0041963362 0.0031557178 0.0049916149 
 1993200  0.010577747 0.0034037612 0.0080315257 
 1993300 0.0093443561 0.0030194558 0.0071076116 
 1993400 0.0093662313 0.0018372155 0.0059349417 
 1993500 0.0068737296 0.0013060412 0.0043132979 
 1993600 0.0028804791 0.0029279116 0.0041881212 
 1993700 0.0077936303 0.0024642847 0.0058739979 
 1993800 0.0050296218 0.0019082441 0.0041087036 
 1993900  0.004631244 0.0016054453 0.0036316146 
 1994000 0.0048048328 0.0018586628 0.0039607771 
 1994100 0.0048386092 0.0022452616 0.0043621532 
 1994200 0.0056928876  0.001735427 0.0042260653 
 1994300 0.0079257954 0.0010342149 0.0045017504 
 1994400 0.0074559606 0.0016306525 0.0048926353 
 1994500 0.0075047248 0.00083321735 0.0041165344 
 1994600 0.0076995625 0.0012844959 0.0046530545 
 1994700 0.0075833427  0.002122065 0.0054397774 
 1994800 0.0050665317 0.0031408985 0.0053575061 
 1994900 0.0034391807 0.0023297863 0.0038344278 
 1995000 0.0062111739 0.0025126144  0.005230003 
 1995100 0.0043737264 0.0030033492 0.0049168545 
 1995200 0.0066984064  0.003050626 0.0059811788 
 1995300 0.0072323727 0.0030321517 0.0061963147 
 1995400 0.0058571636 0.0035171228 0.0060796318 
 1995500 0.0052867972 0.0024314544 0.0047444281 
 1995600 0.0061667626   0.00217977 0.0048777286 
 1995700 0.0089339997 0.0016799003 0.0055885252 
 1995800 0.0062354811 0.0027538517 0.0054818747 
 1995900 0.0047870661 0.0034792552 0.0055735966 
 1996000 0.0069073619 0.0026162915 0.0056382623 
 1996100 0.0055415014 0.0024814778 0.0049058847 
 1996200 0.0075113713 0.0025342419 0.0058204668 
 1996300 0.0036175152 0.0022876907 0.0038703536 
 1996400 0.0038697564 0.0019615869 0.0036546053 
 1996500 0.0047409774 0.0014638951 0.0035380727 
 1996600 0.0057706282 0.0016903471  0.004214997 
 1996700 0.0089467126 0.0019164807 0.0058306675 
 1996800 0.0049858554 0.0025648536 0.0047461653 
 1996900 0.0065316826 0.0018404119  0.004698023 
 1997000 0.0033658131 0.0013773556 0.0028498989 
 1997100 0.0055962484 0.0014630303  0.003911389 
 1997200 0.0040953065  0.001620329 0.0034120256 
 1997300 0.0047377588 0.0029475742 0.0050203437 
 1997400 0.0050964396 0.0032258218 0.0054555141 
 1997500 0.0044928787 0.0026156731 0.0045813076 
 1997600 0.0084888873 0.0020170995 0.0057309877 
 1997700 0.0018489614 0.0021713336 0.0029802542 
 1997800   0.00845042 0.0022370954 0.0059341542 
 1997900 0.0084259507 0.0034265784 0.0071129319 
 1998000 0.0035188519 0.0041636188 0.0057031165 
 1998100   0.00519759 0.0029875339 0.0052614795 
 1998200 0.0064780065  0.001261189 0.0040953169 
 1998300 0.0043427288 0.00068946033 0.0025894042 
 1998400 0.0043436101 0.00076392623 0.0026642556 
 1998500 0.0048600959 0.00046276456 0.0025890565 
 1998600   0.00400599 0.00083665093 0.0025892715 
 1998700 0.0047726401 0.0012718685 0.0033598985 
 1998800 0.0033232022 0.00096850115 0.0024224021 
 1998900 0.0040710536 0.0011903803 0.0029714662 
 1999000 0.0064288131 0.0011170182 0.0039296239 
 1999100 0.0032828285 0.0019236157 0.0033598532 
 1999200 0.0061845092 0.0016389768 0.0043446995 
 1999300 0.0056427996 0.0015509544 0.0040196792 
 1999400 0.0044191877 0.0013193707 0.0032527653 
 1999500 0.0050278316  0.001714613 0.0039142893 
 1999600 0.0088282478 0.0012904919 0.0051528503 
 1999700 0.0027763532 0.0012671682 0.0024818228 
 1999800 0.0031875782 0.0014186408 0.0028132062 
 1999900 0.0095469347 0.0012657077 0.0054424916 
 2000000 0.0050785787 0.0012610955 0.0034829737 
Loop time of 9.77838 on 1 procs for 2000000 steps with 16 atoms

Pair  time (%) = 0 (0)
Bond  time (%) = 2.21758 (22.6784)
Neigh time (%) = 0.624213 (6.3836)
Comm  time (%) = 1.28554 (13.1468)
Outpt time (%) = 0.0777321 (0.794938)
Other time (%) = 5.57331 (56.9962)

Nlocal:    16 ave 16 max 16 min
Histogram: 1 0 0 0 0 0 0 0 0 0
Nghost:    4 ave 4 max 4 min
Histogram: 1 0 0 0 0 0 0 0 0 0
Neighs:    0 ave 0 max 0 min
Histogram: 1 0 0 0 0 0 0 0 0 0

Total # of neighbors = 0
Ave neighs/atom = 0
Ave special neighs/atom = 6
Neighbor list builds = 2000000
Dangerous builds = 0
